mp_id,composition,a_edge (angstrom),b_edge (angstrom),c_edge (angstrom),alpha_ang (deg),beta_ang (deg),gamma_ang (deg),crystal_system,space_group,formation_energy (eV/atom),energy_above_hull (eV/atom),band_gap (eV),A_site,B_site,X_site
mp-1176635,Li1 Mn1 F3,5.06220146,5.06220146,7.106968,90.0,90.0,145.1813238,ortho,Cmcm,-2.980362126,0.067145346,4.4878,Li,Mn,F
mp-1176636,Li1 Mn1 F3,6.410968119,6.410968119,6.479826,90.0,90.0,107.6523787,ortho,Cmcm,-2.97185933,0.075648142,3.5585,Li,Mn,F
mp-1371141,Li1 Mn1 F3,5.937597389,5.937597389,11.67697,90.0,90.0,119.9999932,trig,P3c1,-3.015128387,0.032379085,3.8917,Li,Mn,F
mp-752829,Li1 Mn1 F3,5.662211134,5.662211134,5.662211392,56.61427416,56.61427416,56.61428497,trig,R-3,-3.00698401,0.040523462,3.7865,Li,Mn,F
mp-752938,Li1 Mn1 F3,5.829704707,5.829704707,5.829704483,55.15543882,55.15543882,55.15544207,trig,R-3c,-3.013268004,0.034239468,3.2439,Li,Mn,F
mp-753025,Li1 Mn1 F3,5.425869777,5.425869777,10.485407,90.0,90.0,119.9999973,hex_,P6_322,-2.962956029,0.084551443,3.5423,Li,Mn,F
mp-754676,Li1 Mn1 F3,5.202465378,5.202465378,4.861054,90.0,90.0,119.9999921,hex_,P6_322,-3.022887281,0.024620191,3.6507,Li,Mn,F
mp-754770,Li1 Mn1 F3,10.224994,3.803119,6.945255123,87.3230362,90.0,90.0,mono,P2_1/c,-2.97601356,0.071493912,3.515,Li,Mn,F
mp-756130,Li1 Mn1 F3,5.412977603,5.412977603,9.861305,90.0,90.0,119.9999952,trig,P-31c,-2.981118973,0.066388499,3.6046,Li,Mn,F
mp-757275,Li1 Mn1 F3,10.186736,7.133177,7.88107071,65.52644829,90.0,90.0,mono,P2_1/c,-2.971142205,0.076365267,3.5688,Li,Mn,F
mp-758456,Li1 Mn1 F3,5.176898083,5.176898083,7.718202,90.0,90.0,145.5998711,ortho,Cmcm,-2.945302032,0.10220544,3.5564,Li,Mn,F
mp-758779,Li1 Mn1 F3,5.936964,5.938230033,11.6769705,89.97098302,90.08854694,119.9877452,trig,P3,-3.015504265,0.032003207,3.8879,Li,Mn,F
mp-759023,Li1 Mn1 F3,10.6665149,10.6665149,10.6665149,109.7224179,109.7224179,108.9699858,tet,I4_1/a,-2.985136235,0.062371237,3.4454,Li,Mn,F
mp-759032,Li1 Mn1 F3,12.016247,5.565437,7.724876114,76.88970606,90.0,90.0,mono,P2_1/c,-2.954128447,0.093379026,0.0,Li,Mn,F
mp-759042,Li1 Mn1 F3,8.8594,8.8594,6.254912,90.0,90.0,90.0,tet,P4_2/n,-2.969588223,0.077919249,3.2651,Li,Mn,F
mp-759048,Li1 Mn1 F3,7.0008,8.050822176,21.51586593,82.98214646,82.39544831,88.73692166,tri,P-1,-2.978967513,0.068539959,3.2519,Li,Mn,F
mp-759093,Li1 Mn1 F3,5.048173,5.385453,9.006966,90.0,90.0,90.0,ortho,Pnna,-3.017921556,0.029585916,3.8236,Li,Mn,F
mp-759492,Li1 Mn1 F3,9.276248,5.719131,10.28897418,75.03034805,90.0,90.0,mono,P2_1/c,-3.007713837,0.039793635,3.7384,Li,Mn,F
mp-759538,Li1 Mn1 F3,7.00626,7.999028797,16.63921167,91.27387283,96.86143732,91.53134007,tri,P-1,-2.975982083,0.071525389,3.3597,Li,Mn,F
mp-760095,Li1 Mn1 F3,5.328379618,5.328379618,15.385922,90.0,90.0,119.9999953,trig,P-3,-2.953566754,0.093940718,2.4262,Li,Mn,F
mp-762988,Li1 Mn1 F3,7.13482519,7.13482519,6.17613078,65.94312453,65.94312453,66.56361192,mono,Cc,-2.948391998,0.099115474,3.7014,Li,Mn,F
mp-763003,Li1 Mn1 F3,8.98355855,8.98355855,8.983558464,112.273471,112.273471,112.2734719,trig,R-3,-2.953440191,0.094067281,2.5762,Li,Mn,F
mp-763149,Li1 Mn1 F3,6.24089,6.24089,6.24089,90.0,90.0,90.0,cubic,P2_13,-3.014803744,0.032703728,3.4382,Li,Mn,F
mp-763191,Li1 Mn1 F3,7.825820578,7.825820578,7.825820578,144.4611508,109.9119444,81.12396431,ortho,Ibam,-2.944405466,0.103102006,3.5205,Li,Mn,F
mp-763362,Li1 Mn1 F3,5.258998,5.414067,8.443386,90.0,90.0,90.0,ortho,Pna2_1,-2.969606572,0.0779009,3.6017,Li,Mn,F
mp-764783,Li1 Mn1 F3,5.646784,5.967319,8.7587,90.0,90.0,90.0,ortho,Pnma,-2.956796247,0.090711225,2.6723,Li,Mn,F
mp-765090,Li1 Mn1 F3,7.730819,8.57623787,8.643438137,83.3627088,112.6577922,112.9787649,tri,P-1,-2.948219962,0.09928751,3.2241,Li,Mn,F
mp-765457,Li1 Mn1 F3,5.195478,5.977207,8.338164,90.0,90.0,90.0,ortho,Pnma,-3.007715111,0.039792361,2.9514,Li,Mn,F
mp-774399,Li1 Mn1 F3,7.029579,8.007542145,12.27668265,106.0274798,93.87285877,91.75172213,tri,P-1,-2.968442153,0.079065319,3.5994,Li,Mn,F
mp-776156,Li1 Mn1 F3,6.208448,6.208448,6.208448,90.0,90.0,90.0,cubic,P2_13,-3.00166163,0.045845842,3.5452,Li,Mn,F
mp-776951,Li1 Mn1 F3,5.123617,5.45322,7.724588,90.0,90.0,90.0,ortho,Pnma,-3.008334494,0.039172978,4.0,Li,Mn,F
mp-777298,Li1 Mn1 F3,5.890761,9.339731,10.068387,90.0,90.0,90.0,ortho,Pbcn,-2.998696772,0.048810701,3.5986,Li,Mn,F
mp-777352,Li1 Mn1 F3,5.739886,9.314545,19.7168,90.0,90.0,90.0,ortho,Pbca,-3.008753203,0.038754269,3.7601,Li,Mn,F
mp-777355,Li1 Mn1 F3,5.035124,8.902549,10.775429,90.0,90.0,90.0,ortho,Pccn,-3.026140129,0.021367344,3.7031,Li,Mn,F
mp-777655,Li1 Mn1 F3,6.672620233,6.672620233,5.929779909,88.3962488,88.3962488,84.41016818,mono,C2/m,-2.988860329,0.058647143,3.4841,Li,Mn,F
mp-777972,Li1 Mn1 F3,5.465863,9.035989,10.052948,90.0,90.0,90.0,ortho,Pna2_1,-3.020126092,0.02738138,3.6182,Li,Mn,F
mp-778633,Li1 Mn1 F3,7.130119,7.274539051,7.966696267,95.14485351,103.1398985,89.95698015,tri,P-1,-2.981131993,0.066375479,3.707,Li,Mn,F
mp-778697,Li1 Mn1 F3,5.376671,7.323031,11.205083,90.0,90.0,90.0,ortho,Pnma,-2.994628252,0.05287922,0.0,Li,Mn,F
mp-778800,Li1 Mn1 F3,6.578328,6.763391673,8.926425988,90.56612663,107.6583016,98.91742473,tri,P-1,-2.971854415,0.075653057,3.7265,Li,Mn,F
mp-778819,Li1 Mn1 F3,6.41693581,6.41693581,3.242471,90.0,90.0,107.538748,ortho,Amm2,-2.972077562,0.07542991,3.4804,Li,Mn,F
mp-779073,Li1 Mn1 F3,12.14357869,12.14357869,12.14357874,28.48385005,28.48385005,28.48384947,trig,R-3c,-2.993691771,0.053815701,3.795,Li,Mn,F
mp-779317,Li1 Mn1 F3,7.165301,7.242488,15.56412025,84.10873549,90.0,90.0,mono,P2_1/c,-2.981409466,0.066098006,3.7196,Li,Mn,F
mp-859873,Li1 Mn1 F3,5.907202868,5.907202868,5.897964,90.0,90.0,120.0000097,hex_,P6_3/mmc,-2.954826778,0.092680694,3.7715,Li,Mn,F
mp-1120793,Li1 Mn1 O3,5.021823,5.154043,7.076345,90.0,90.0,90.0,ortho,Pnma,-1.691599767,0.183920014,0.0,Li,Mn,O
mp-1094130,Li1 N1 O3,4.114484898,4.114484898,4.114484876,60.13123032,60.13123032,60.1312389,trig,R-3m,0.773887207,2.160649706,0.0,Li,N,O
mp-696822,Li1 N1 O3,5.135315358,5.135315358,3.950154128,70.42243483,70.42243483,86.90858273,mono,C2/c,-0.287897401,1.098865098,0.0,Li,N,O
mp-8180,Li1 N1 O3,5.6282987,5.628299005,5.628298959,48.85424376,48.85424111,48.8542476,trig,R-3c,-1.386762499,0.0,2.9369,Li,N,O
mp-1078377,Li1 Nb1 O3,5.726535084,5.726535084,5.726535644,54.95948858,54.95948858,54.95949492,trig,R-3,-2.878810781,0.020706871,3.684,Li,Nb,O
mp-1196213,Li1 Nb1 O3,6.186678614,8.26576876,9.509339253,90.0,89.94088038,90.0,mono,P2_1/c,-2.886187025,0.013330627,3.1296,Li,Nb,O
mp-3731,Li1 Nb1 O3,5.15394329,5.531529306,17.21247029,87.57036457,98.63069517,117.7709908,trig,R3c,-2.899517652,0.0,3.3358,Li,Nb,O
mp-552588,Li1 Nb1 O3,5.543736003,5.543736003,5.543735554,56.7526276,56.7526276,56.75263102,trig,R-3c,-2.86650962,0.033008032,2.275,Li,Nb,O
mp-674361,Li1 Nb1 O3,5.249953,5.583396531,21.72670413,94.76912966,90.0166059,117.9780142,tri,P1,-2.889461234,0.010056417,2.9621,Li,Nb,O
mp-675069,Li1 Nb1 O3,5.229927,5.579610664,30.29218475,87.37851116,85.05839621,62.10405718,tri,P1,-2.892658409,0.006859243,3.0192,Li,Nb,O
mp-676694,Li1 Nb1 O3,5.239596,5.584106865,25.95779793,93.00711374,90.00677852,117.9196565,tri,P1,-2.891502366,0.008015286,2.9794,Li,Nb,O
mp-685413,Li1 Nb1 O3,5.678020059,5.690272697,74.13907331,54.70414115,54.77100111,54.68420879,tri,P1,-2.784339947,0.115177704,0.0,Li,Nb,O
mp-686057,Li1 Nb1 O3,5.231451,5.581548102,17.45918489,87.64801976,98.60077596,117.8578589,tri,P1,-2.888663548,0.010854103,3.0381,Li,Nb,O
mp-755559,Li1 Nb1 O3,5.505402268,5.505402268,5.146995968,83.66509198,83.66509198,124.4320474,mono,C2/m,-2.844351482,0.05516617,3.4857,Li,Nb,O
mp-760701,Li1 Nb1 O3,5.275352384,5.275352384,10.04535152,88.04950148,88.04950148,114.9373197,mono,C2/c,-2.863610452,0.0359072,3.4233,Li,Nb,O
mp-776108,Li1 Nb1 O3,5.302477,5.56891,15.149082,90.0,90.0,90.0,ortho,Pbcm,-2.869681057,0.029836595,2.8678,Li,Nb,O
mp-1185387,Li1 Nd1 O3,3.772144,3.772144,3.772144,90.0,90.0,90.0,cubic,Pm-3m,-2.298714777,0.25988815,0.0,Li,Nd,O
mp-758501,Li1 Ni1 F3,5.448149593,5.448149009,5.448149358,55.21225851,55.2122607,55.21225945,trig,R-3,-2.597769158,0.018963556,5.245,Li,Ni,F
mp-1185261,Li1 Ni1 O3,3.775145,3.775145,3.775145,90.0,90.0,90.0,cubic,Pm-3m,-0.705458378,0.502421934,0.0,Li,Ni,O
mp-1078188,Li1 Os1 O3,5.287630721,5.28763072,5.287631154,57.86462279,57.86462282,57.86462616,trig,R-3c,-1.736222353,0.008333421,0.0,Li,Os,O
mp-1078358,Li1 Os1 O3,5.319329869,5.319329875,5.319329714,56.77908426,56.77908419,56.77908807,trig,R3c,-1.744555774,0.0,0.0,Li,Os,O
mp-1202801,Li1 P1 O3,5.521558,13.31298,19.66463186,57.25981679,90.0,90.0,mono,Pc,-2.701737629,0.000989664,5.5832,Li,P,O
mp-29195,Li1 P1 O3,5.30601022,7.947867306,16.90987642,90.0,90.0,99.64294315,mono,P2_1/c,-2.702727293,0.0,5.722,Li,P,O
mp-557189,Li1 P1 O3,5.512048,13.301205,19.62527469,57.39720559,90.0,90.0,mono,P2/c,-2.700216261,0.002511032,5.7828,Li,P,O
mp-1185263,Li1 Pa1 O3,4.31820142,4.31820142,4.31820142,90.0,90.0,90.0,cubic,Pm-3m,-3.339490446,0.0,3.1954,Li,Pa,O
mp-1185388,Li1 Pm1 O3,3.746129,3.746129,3.746129,90.0,90.0,90.0,cubic,Pm-3m,-2.298333461,0.287546244,0.0,Li,Pm,O
mp-1185404,Li1 Pr1 O3,3.790912,3.790912,3.790912,90.0,90.0,90.0,cubic,Pm-3m,-2.29737244,0.235092001,0.0,Li,Pr,O
mp-8189,Li1 Re1 O3,5.426872181,5.426872181,5.426872058,56.53744386,56.53744386,56.53743752,trig,R3c,-2.104858231,0.075053481,0.0,Li,Re,O
mp-1185420,Li1 Ru1 O3,3.834755,3.834755,3.834755,90.0,90.0,90.0,cubic,Pm-3m,-1.457952954,0.211082631,0.0,Li,Ru,O
mp-4995,Li1 Sb1 O3,4.87993988,5.19125198,8.50669695,90.0,90.0,90.0,ortho,Pnna,-2.118194097,0.0,2.1379,Li,Sb,O
mp-752636,Li1 Sb1 O3,6.020704,6.020704,6.020704,90.0,90.0,90.0,cubic,P2_13,-2.02938361,0.088810487,1.4496,Li,Sb,O
mp-756951,Li1 Sb1 O3,5.340750793,5.340750793,5.05847015,83.12870703,83.12870703,123.12512,mono,C2/m,-2.059622313,0.058571784,2.9459,Li,Sb,O
mp-770932,Li1 Sb1 O3,6.622148019,5.234383649,9.702363772,86.94645891,42.98349199,51.17114272,mono,C2/m,-2.101960167,0.01623393,2.8256,Li,Sb,O
mp-28835,Li1 Sc1 I3,7.485670533,7.485670533,6.70449,90.0,90.0,120.0000047,hex_,P-6c2,-1.34773314,0.047725456,0.0,Li,Sc,I
mp-1211104,Li1 Se1 O3,5.417166,5.436661,11.534035,90.0,90.0,90.0,ortho,P2_12_12_1,-1.434109698,0.207841211,0.5306,Li,Se,O
mp-20747,Li1 Si3 Pd1,7.201335587,7.201335587,7.201335587,152.548175,152.548175,39.21332073,tet,I4mm,0.066143833,0.389178253,0.0,Li,Pd,Si
mp-1185414,Li1 Si1 O3,3.508652,3.508652,3.508652,90.0,90.0,90.0,cubic,Pm-3m,-2.39424171,0.32128619,0.0,Li,Si,O
mp-973136,Li1 Sm1 O3,3.734836,3.734836,3.734836,90.0,90.0,90.0,cubic,Pm-3m,-2.290626915,0.308178575,0.0,Li,Sm,O
mp-998230,Li1 Sn1 Cl3,5.071729819,5.078612021,5.088723777,87.35959264,87.39209998,87.48050394,trig,R3m,-1.677139822,0.020719455,0.0003,Li,Sn,Cl
mp-998591,Li1 Sn1 Cl3,6.97080816,6.970807983,7.237700929,61.21250814,61.21250785,60.00000394,trig,R3c,-1.687657989,0.010201288,3.4801,Li,Sn,Cl
mp-1105216,Li1 Ta1 O3,5.081659416,5.081659416,5.682455,90.0,90.0,96.74712372,ortho,Cmcm,-2.977256206,0.148102564,3.7436,Li,Ta,O
mp-1105280,Li1 Ta1 O3,4.749778,5.117239,8.834571,90.0,90.0,90.0,ortho,Pnma,-3.014904759,0.110454012,2.4709,Li,Ta,O
mp-1105326,Li1 Ta1 O3,4.927793,6.414382,8.548385,90.0,90.0,90.0,ortho,Pnma,-2.870705269,0.254653502,3.4719,Li,Ta,O
mp-3666,Li1 Ta1 O3,5.476847657,5.476847759,5.476847362,55.89940507,55.89940795,55.89941377,trig,R3c,-3.12535877,0.0,3.7003,Li,Ta,O
mp-754345,Li1 Ta1 O3,5.444507,5.444507,3.942623,90.0,90.0,90.0,tet,P4/mbm,-3.036713801,0.088644969,2.5608,Li,Ta,O
mp-862870,Li1 Tc1 O3,3.853851,3.853851,3.853851,90.0,90.0,90.0,cubic,Pm-3m,-1.911468099,0.065270209,0.0,Li,Tc,O
mp-755231,Li1 Te1 O3,5.178121,5.341448,8.960911,90.0,90.0,90.0,ortho,Pnn2,-1.750682788,0.062716616,2.1534,Li,Te,O
mp-675460,Li1 Ti1 Cl3,5.05918,5.05918,4.860325,90.0,90.0,90.0,tet,P4/mmm,-1.612653835,0.202078537,0.0,Li,Ti,Cl
mp-676210,Li1 Ti1 Cl3,7.443274488,7.443274488,12.34525996,71.52505696,71.52505696,57.46468224,mono,Cm,-1.71977677,0.094955602,0.0177,Li,Ti,Cl
mp-1185236,Li1 Tm1 O3,3.641522,3.641522,3.641522,90.0,90.0,90.0,cubic,Pm-3m,-2.223948162,0.488917546,0.0,Li,Tm,O
mp-1181180,Li1 U1 O3,16.09011127,6.934066509,8.56040771,143.9992852,160.0177053,30.5897226,ortho,Amm2,-3.140485973,0.208022928,0.3914,Li,U,O
mp-545712,Li1 U1 O3,4.276264,4.276264,4.276264,90.0,90.0,90.0,cubic,Pm-3m,-3.139474476,0.209034425,0.4172,Li,U,O
mp-8007,Li1 U1 O3,5.88592778,5.885927428,5.885927844,54.84616027,54.8461627,54.84616886,trig,R3c,-3.348508901,0.0,0.4431,Li,U,O
mp-752607,Li1 V1 F3,5.677266128,5.677266128,5.677266101,56.27712628,56.27712628,56.27712873,trig,R-3,-3.021265433,0.045084077,2.5457,Li,V,F
mp-752619,Li1 V1 F3,5.619684,3.269829,6.703650287,75.84122078,90.0,90.0,mono,P2_1/m,-2.987168714,0.079180796,2.4089,Li,V,F
mp-752764,Li1 V1 F3,5.536337433,5.536337433,5.536336008,55.46044749,55.46044749,55.46044098,trig,R3c,-3.047840711,0.018508799,2.6547,Li,V,F
mp-752911,Li1 V1 F3,5.366711,5.455766,7.834296,90.0,90.0,90.0,ortho,Pnma,-3.030558212,0.035791299,2.6241,Li,V,F
mp-753024,Li1 V1 F3,5.857937895,5.857937895,5.891491,90.0,90.0,119.9999988,hex_,P6_3/mmc,-2.974718761,0.091630749,1.976,Li,V,F
mp-756643,Li1 V1 F3,7.220862336,7.220862336,5.865045329,70.14137072,70.14137072,64.4346376,mono,C2/c,-2.965933308,0.100416202,2.4587,Li,V,F
mp-777551,Li1 V1 F3,6.166429,6.166429,6.166429,90.0,90.0,90.0,cubic,P2_13,-3.029191407,0.037158103,2.8112,Li,V,F
mp-777676,Li1 V1 F3,7.256616561,7.256616561,5.782209708,70.99180186,70.99180186,80.27012224,mono,C2/c,-2.996077959,0.070271551,2.489,Li,V,F
mp-777893,Li1 V1 F3,5.005388,8.828678,10.675674,90.0,90.0,90.0,ortho,Pccn,-3.045194993,0.021154518,2.0934,Li,V,F
mp-777894,Li1 V1 F3,5.011178,5.372419,8.908797,90.0,90.0,90.0,ortho,Pnna,-3.038769031,0.02758048,2.716,Li,V,F
mp-778509,Li1 V1 F3,6.175803,6.175803,6.175803,90.0,90.0,90.0,cubic,P2_13,-2.99519016,0.071159351,2.7453,Li,V,F
mp-782665,Li1 V1 F3,5.724257,9.399066,19.276746,90.0,90.0,90.0,ortho,Pbca,-3.012836275,0.053513236,2.5628,Li,V,F
mp-849502,Li1 V1 F3,7.030158,8.06741788,21.04280028,83.55320761,82.90641013,86.18551699,tri,P-1,-2.972033909,0.094315601,1.355,Li,V,F
mp-1176521,Li1 V1 O3,5.10629112,5.10629112,4.97861532,83.46425112,83.46425112,123.6322543,mono,C2/m,-2.345197422,0.082759272,0.0002,Li,V,O
mp-19373,Li1 V1 O3,6.607989539,6.607989539,5.834650408,73.39932612,73.39932612,78.11142436,mono,C2/c,-2.427956694,0.0,3.0342,Li,V,O
mp-19440,Li1 V1 O3,7.648511806,7.648511806,5.797598281,68.56626188,68.56626188,83.53101445,mono,C2/c,,,2.8357,Li,V,O
mp-723831,Li1 V1 O3,5.68874567,7.46422039,7.464221041,82.97939078,67.98238899,67.98237587,mono,C2/c,-2.427194401,0.000762293,2.7113,Li,V,O
mp-754098,Li1 V1 O3,6.595424622,6.595424622,6.068163022,76.31625421,76.31625421,25.31002991,mono,C2/m,-2.316607729,0.111348965,2.0933,Li,V,O
mp-763200,Li1 V1 O3,4.950276239,4.950276239,5.366326912,77.40280801,77.40280801,115.8290388,mono,C2,-2.342649386,0.085307308,2.003,Li,V,O
mp-1176510,Li1 V1 S3,5.807585,6.486580234,6.670328993,109.8812652,93.71089102,115.0528717,tri,P-1,-1.14070838,0.102973501,0.0399,Li,V,S
mp-976283,Li1 Y1 O3,3.687005,3.687005,3.687005,90.0,90.0,90.0,cubic,Pm-3m,-2.229059918,0.4157053,0.0,Li,Y,O
mp-1206894,Lu3 Al1 C1,4.71874906,4.71875517,4.71874906,90.0,90.0,90.0,cubic,Pm-3m,-0.481560512,0.0,0.0,Al,C,Lu
mp-1017627,Lu3 Al1 N1,4.60314447,4.60314447,4.60314447,90.0,90.0,90.0,cubic,Pm-3m,-1.131227488,0.0,0.0,Al,N,Lu
mp-1206912,Lu3 Ga1 C1,4.68574539,4.68574539,4.68574539,90.0,90.0,90.0,cubic,Pm-3m,-0.545378021,0.0,0.0,Ga,C,Lu
mp-1206516,Lu3 In1 C1,4.75349159,4.75349159,4.75349159,90.0,90.0,90.0,cubic,Pm-3m,-0.573301741,0.0,0.0,In,C,Lu
mp-11733,Lu3 In1 N1,4.64826427,4.64826427,4.64826427,90.0,90.0,90.0,cubic,Pm-3m,-1.218801316,0.0,0.0,In,N,Lu
mp-1206877,Lu3 Pb1 C1,4.75169539,4.75169539,4.75169539,90.0,90.0,90.0,cubic,Pm-3m,-0.566785402,0.0,0.0,Pb,C,Lu
mp-10609,Lu3 Sn1 C1,4.72821961,4.72821961,4.72821961,90.0,90.0,90.0,cubic,Pm-3m,-0.669114644,0.0,0.0,Sn,C,Lu
mp-10607,Lu3 Tl1 C1,4.74607332,4.74607332,4.74607332,90.0,90.0,90.0,cubic,Pm-3m,-0.525231942,0.0,0.0,Tl,C,Lu
mp-1185485,Lu1 Al1 O3,3.677248,3.677248,3.677248,90.0,90.0,90.0,cubic,Pm-3m,-3.549526354,0.25549234,3.1252,Lu,Al,O
mp-754435,Lu1 Al1 O3,5.182371415,5.182371415,5.182370943,60.93765084,60.93765084,60.93764162,trig,R-3c,-3.722812292,0.082206402,0.0002,Lu,Al,O
mp-755358,Lu1 Al1 O3,3.389593056,3.389593056,11.469327,90.0,90.0,120.0000206,hex_,P6_3/mmc,-3.743391515,0.061627179,3.6479,Lu,Al,O
mp-755574,Lu1 Al1 O3,5.119996,5.361787,7.36044,90.0,90.0,90.0,ortho,Pnma,-3.783986144,0.02103255,6.0914,Lu,Al,O
mp-756850,Lu1 Al1 O3,6.480351303,6.480351303,10.246096,90.0,90.0,120.2200639,ortho,Cmcm,-3.706706328,0.098312366,3.712,Lu,Al,O
mp-1222450,Lu1 B1 O3,3.87326198,3.87326198,8.442054,90.0,90.0,116.1679405,ortho,Ama2,-3.485025854,0.084125662,4.5157,Lu,B,O
mp-7560,Lu1 B1 O3,6.032451833,6.032452339,6.032452289,47.71010856,47.71011237,47.71010333,trig,R-3c,-3.569151516,0.0,5.3023,Lu,B,O
mp-760461,Lu1 B1 O3,4.600405273,4.600405273,7.966248,90.0,90.0,135.7286694,ortho,Cmcm,-3.540390107,0.028761409,4.2791,Lu,B,O
mp-3105,Lu1 B1 Pd3,4.286119,4.286119,4.286119,90.0,90.0,90.0,cubic,Pm-3m,-0.674115597,0.11490507,0.0,Lu,B,Pd
mp-3717,Lu1 B1 Rh3,4.13754512,4.13753698,4.13750443,90.0,90.0,90.0,cubic,Pm-3m,-0.888095088,0.0,0.0,Lu,B,Rh
mp-1176501,Lu1 Bi1 O3,6.045355796,6.045355796,6.045355523,58.67412313,58.67412313,58.67413236,trig,R3c,-2.855013119,0.027742274,3.1586,Lu,Bi,O
mp-772801,Lu1 Bi1 O3,6.108581631,6.108581631,6.108581437,57.68195007,57.68195007,57.68194838,trig,R-3,-2.823910251,0.058845142,2.3018,Lu,Bi,O
mp-1222293,Lu1 Bi1 Te3,10.90266228,10.90266228,10.90266238,23.11727067,23.11727067,23.11727399,trig,R3m,-1.018663021,0.023043488,1.1043,Lu,Bi,Te
mp-550950,Lu1 Co1 O3,5.067229,5.450336,7.305639,90.0,90.0,90.0,ortho,Pnma,-2.63966392,0.037204012,0.0,Lu,Co,O
mp-755471,Lu1 Cr1 O3,5.13477912,5.48498586,7.45708665,90.0,90.0,90.0,ortho,Pnma,-3.253673552,0.0,2.5313,Lu,Cr,O
mp-1193395,Lu1 Fe1 O3,5.962016454,5.962019856,11.58159389,89.9984815,89.99847915,119.9958845,hex_,P6_3cm,-2.901636081,0.013801381,0.0,Lu,Fe,O
mp-22588,Lu1 Fe1 O3,5.240991,5.581437,7.665847,90.0,90.0,90.0,ortho,Pnma,-2.879398339,0.036039123,1.6083,Lu,Fe,O
mp-1185488,Lu1 Ga1 O3,3.76660741,3.76660741,3.76660741,90.0,90.0,90.0,cubic,Pm-3m,-2.75538206,0.464550231,3.0274,Lu,Ga,O
mp-755342,Lu1 Ga1 O3,3.457911449,3.457911449,11.705323,90.0,90.0,119.9999895,hex_,P6_3/mmc,-3.198725922,0.021206369,2.5134,Lu,Ga,O
mp-755792,Lu1 Ga1 O3,5.208062,5.538213,7.584194,90.0,90.0,90.0,ortho,Pnma,-3.165389938,0.054542353,3.974,Lu,Ga,O
mp-768505,Lu1 Ga1 O3,5.902617442,5.902615852,11.57413725,89.99999338,89.99995016,119.9993873,hex_,P6_3cm,-3.219932291,0.0,2.8917,Lu,Ga,O
mp-1185514,Lu1 Ge1 O3,3.876011,3.876011,3.876011,90.0,90.0,90.0,cubic,Pm-3m,-2.260620259,0.811421797,0.0,Lu,Ge,O
mp-1232147,Lu1 Mg1 Se3,8.153406397,11.84292776,7.273740432,90.0,130.4738508,90.0,mono,C2/m,-1.40722344,0.295558502,0.0,Lu,Mg,Se
mp-1237926,Lu1 Mg1 Se3,7.310461667,7.310461667,6.85701455,76.0408141,76.0408141,118.9839127,mono,C2/m,-1.373790636,0.328991307,0.0,Lu,Mg,Se
mp-18808,Lu1 Mn1 O3,6.005675697,6.005585934,11.31237259,89.99930347,90.00043619,120.0011963,hex_,P6_3cm,-3.110406498,0.0,0.0,Lu,Mn,O
mp-21125,Lu1 Mn1 O3,5.241762,5.774885,7.443986,90.0,90.0,90.0,ortho,Pnma,-3.060099999,0.050306498,0.4482,Lu,Mn,O
mp-1079715,Lu1 Ni1 Ge3,10.9582056,10.9582056,4.046065,90.0,90.0,158.5251057,ortho,Cmmm,-0.512444584,0.01315688,0.0,Lu,Ni,Ge
mp-1105866,Lu1 Ni1 O3,5.524087,5.135201,8.978869308,55.32949237,90.0,90.0,mono,P2_1/c,-2.534079794,0.016295357,0.0995,Lu,Ni,O
mp-19327,Lu1 Ni1 O3,5.05126451,5.46733495,7.271698801,90.00129829,90.00047976,90.00007984,ortho,Pnma,-2.535460961,0.01491419,0.0,Lu,Ni,O
mp-1185498,Lu1 Np1 O3,4.198436,4.198436,4.198436,90.0,90.0,90.0,cubic,Pm-3m,-3.107431188,0.575002478,0.0493,Lu,Np,O
mp-1185490,Lu1 Pd1 O3,3.963751,3.963751,3.963751,90.0,90.0,90.0,cubic,Pm-3m,-1.75388977,0.684225317,0.0,Lu,Pd,O
mp-1185529,Lu1 Re1 O3,3.956277,3.956277,3.956277,90.0,90.0,90.0,cubic,Pm-3m,-1.941358203,0.986050597,0.0,Lu,Re,O