mp_id,formula,sites,composition,a_edge (angstrom),b_edge (angstrom),c_edge (angstrom),alpha_ang (deg),beta_ang (deg),gamma_ang (deg),crystal_system,space_group,total_magnetisation (bohr),energy_per_atom (eV/atom),formation_energy (eV/atom),energy_above_hull (eV/atom),stable,density (g/cc),band_gap (eV),direct_bandgap,volume (cubic-angstrom),bulk_modulus (GPa),shear_modulus (GPa)
mp-761122,VOF3,20,V1 O1 F3,6.382427,6.419101,10.78271376,67.33637657,90,90,mono,Pc,0.0007192,-6.642384792,-2.689123997,0.024952772,FALSE,2.019385636,3.8907,TRUE,407.650224,,
mp-761177,VOF3,20,V1 O1 F3,5.830825,5.830825,8.17585,90,90,90,tet,P4_1,0,-6.609262601,-2.656001805,0.058074963,FALSE,2.96151556,3.0386,TRUE,277.9668012,,
mp-764274,VOF3,20,V1 O1 F3,8.07873528,8.07873528,3.90662956,90,90,90,tet,P-42_1m,0,-6.661032502,-2.707771707,0.006305061,FALSE,3.228627645,3.4202,FALSE,254.9699431,,
mp-775981,VOF3,20,V1 O1 F3,5.292168,5.499516474,9.330487658,88.81727375,89.92567902,88.90872852,tri,P-1,0.0031295,-6.604261182,-2.651000386,0.063076382,FALSE,3.032605833,1.8771,FALSE,271.4507101,,
mp-776441,VOF3,20,V1 O1 F3,5.474497,5.496589802,10.43528246,89.20385312,89.39920396,60.4550218,tri,P-1,0.000101,-6.604577832,-2.651317037,0.062759732,FALSE,3.013749813,1.8397,FALSE,273.149086,,
mp-776473,VOF3,20,V1 O1 F3,5.46281,5.527631802,10.89258904,91.7570513,91.67764443,118.3432952,tri,P1,0,-6.641668579,-2.688407783,0.025668985,FALSE,2.848546583,2.9487,FALSE,288.9905371,,
mp-776474,VOF3,20,V1 O1 F3,5.756675,7.633794845,7.67791571,76.42851132,70.7939106,71.68037774,tri,P1,0.0008757,-6.644426971,-2.691166176,0.022910593,FALSE,2.751163533,3.0552,FALSE,299.2199472,,
mp-781081,VOF3,10,V1 O1 F3,5.400268,5.520821,5.583806279,60.90652385,90,90,mono,P2_1,3.00E-06,-6.644945375,-2.69168458,0.022392188,FALSE,2.829449036,3.1125,FALSE,145.4705486,,
mp-850876,VOF3,20,V1 O1 F3,5.420504,5.592232996,9.562092995,89.33748494,89.91712503,86.58488211,tri,P1,1.00E-07,-6.63719642,-2.683935624,0.030141144,FALSE,2.84531365,2.9248,FALSE,289.3188971,,
mp-1187750,VOsO3,5,V1 Os1 O3,3.912223,3.912223,3.912223,90,90,90,cubic,Pm-3m,2.0979584,-7.86462175,-0.833590447,1.08291072,FALSE,8.019200572,0,FALSE,59.87848532,,
mp-1078971,VPS3,10,V1 P1 S3,5.933588,5.946927225,6.92239167,81.80297828,73.3935635,60.07417163,mono,C2/m,4.881998,-6.160961794,-0.778070134,0.115854473,FALSE,2.915747722,0.1223,FALSE,202.8701221,,
mp-1070440,VPbO3,5,V1 Pb1 O3,3.932572,3.932572,3.932572,90,90,90,cubic,Pm-3m,0.9962929,-7.54024152,-2.012154289,0.124516472,FALSE,8.358699293,0,FALSE,60.81770786,,
mp-20032,VPbO3,10,V1 Pb1 O3,5.419376685,5.419376684,6.26617969,64.38122016,64.38136608,89.99844494,tet,P4mm,1.20E-06,-7.64270382,-2.114616589,0.022054172,FALSE,6.981900648,1.3715,FALSE,145.6213594,,
mp-972184,VPtO3,5,V1 Pt1 O3,3.81334,3.81334,3.81334,90,90,90,cubic,Pm-3m,0.9984346,-6.95606388,-0.956279399,0.846575465,FALSE,8.804705798,0,FALSE,55.45191987,,
mp-21862,VRu3C,5,V1 Ru3 C1,4.003409,4.003409,4.003409,90,90,90,cubic,Pm-3m,0.1434092,-9.123774186,0.103381651,0.302494621,FALSE,9.476167371,0,FALSE,64.16377149,,
mp-754608,VSiO3,20,V1 Si1 O3,5.044745738,6.542455933,6.542457872,93.20770505,82.20503288,97.79496707,mono,C2/c,12.0000003,-8.679419127,-2.808797704,0.020424157,FALSE,3.983450374,0,FALSE,211.8066372,,
mp-1207852,VSnO3,20,V1 Sn1 O3,5.417807,5.629041,7.854641,90,90,90,ortho,Pnma,11.9313373,-7.545711718,-1.95823953,0.267822433,FALSE,6.03507789,0,FALSE,239.54344,,
mp-1100777,VTeO3,5,V1 Te1 O3,3.928666,3.928666,3.928666,90,90,90,cubic,Pm-3m,1.8290088,-6.760054014,-1.345835018,0.616163889,FALSE,6.203804357,0,FALSE,60.63666749,,
mp-1247461,VWN3,20,V1 W1 N3,5.392869396,8.757928076,9.456943364,103.1274766,136.3678199,87.75688258,tri,P-1,9.84E-05,-19.02814362,-0.459419192,0.360244434,FALSE,6.234727326,0.0583,FALSE,294.8901188,,
mp-1016931,VZnO3,5,V1 Zn1 O3,3.780363,3.780363,3.780363,90,90,90,cubic,Pm-3m,0.8507357,-6.71785671,-1.680350171,0.54949038,FALSE,5.051436046,0,FALSE,54.02571356,,
mp-1378086,VZnO3,20,V1 Zn1 O3,5.150506,5.153864,7.643512,90,90,90,ortho,Pnma,3.9999889,-7.162019382,-2.124512843,0.105327708,FALSE,5.380214103,0.8621,TRUE,202.897083,,
mp-556208,WCl3O,20,W1 Cl3 O1,12.249127,12.249127,3.827526,90,90,90,tet,P4_2/mnm,3.9992334,-6.207032278,-1.516692035,0.05997516,FALSE,3.541470115,0,FALSE,574.2862583,,
mp-28573,WI3O,20,W1 I3 O1,3.867756,13.986735,13.986735,90,90,90,tet,P4_2/mnm,4.0013644,-5.305556449,-0.809930632,0.033221527,FALSE,5.096347798,0.8858,TRUE,756.6442946,,
mp-1188654,WNCl3,20,W1 N1 Cl3,8.124419915,8.263463251,9.193290534,97.92750325,107.3718253,110.7674543,tri,P-1,0,-16.64867062,-0.85789827,0,TRUE,3.813683736,1.8151,FALSE,529.8241638,,
mp-753398,WOF3,20,W1 O1 F3,5.54778935,4.97041236,9.16448092,90,90,90,ortho,P2_12_12_1,3.9980532,-7.340028386,-2.611922758,0,TRUE,6.750600089,2.4411,TRUE,252.7087354,,
mp-753808,WOF3,20,W1 O1 F3,9.288599696,9.288599696,3.79653573,89.97491461,89.97491461,90.20812376,mono,Cm,3.9999653,-7.190523522,-2.462417895,0.149504864,FALSE,5.208079426,0,FALSE,327.5556058,,
mp-766847,WOF3,20,W1 O1 F3,9.290983,9.290983,3.859623,90,90,90,tet,P-42_1m,3.9999012,-7.203203196,-2.475097568,0.13682519,FALSE,5.120288345,0,FALSE,333.1717858,,
mp-4448,Y3AlC,5,Y3 Al1 C1,4.88638886,4.88638886,4.88638886,90,90,90,cubic,Pm-3m,5.40E-06,-6.8927995,-0.392496336,0,TRUE,4.351052929,0,FALSE,116.6713104,"{'voigt': 79.684, 'reuss': 79.684, 'vrh': 79.684}","{'voigt': 64.15, 'reuss': 63.772, 'vrh': 63.961}"
mp-10601,Y3GaC,5,Y3 Ga1 C1,4.85428524,4.85428317,4.85429039,90,90,90,cubic,Pm-3m,6.30E-06,-6.809426208,-0.452619005,0,TRUE,5.058421008,0,FALSE,114.3868635,"{'voigt': 78.798, 'reuss': 78.798, 'vrh': 78.798}","{'voigt': 64.818, 'reuss': 63.958, 'vrh': 64.388}"
mp-19817,Y3InC,5,Y3 In1 C1,4.91830942,4.91830942,4.91830942,90,90,90,cubic,Pm-3m,7.80E-06,-6.807992866,-0.504970119,0,TRUE,5.492844864,0,FALSE,118.9727616,,
mp-21017,Y3PbC,5,Y3 Pb1 C1,4.9095349,4.9095349,4.9095349,90,90,90,cubic,Pm-3m,6.07E-05,-7.03818125,-0.544463837,0,TRUE,6.818678134,0,FALSE,118.3371362,,
mp-10608,Y3SnC,5,Y3 Sn1 C1,4.88691003,4.88691003,4.8869276,90,90,90,cubic,Pm-3m,1.52E-05,-7.185252328,-0.632149959,0,TRUE,5.654759869,0,FALSE,116.7090656,"{'voigt': 81.995, 'reuss': 81.995, 'vrh': 81.995}","{'voigt': 62.931, 'reuss': 62.027, 'vrh': 62.479}"
mp-9960,Y3TlC,5,Y3 Tl1 C1,4.90973176,4.90973176,4.90973176,90,90,90,cubic,Pm-3m,1.38E-05,-6.6874769,-0.461994478,0,TRUE,6.778338013,0,FALSE,118.3513718,"{'voigt': 77.491, 'reuss': 77.491, 'vrh': 77.491}","{'voigt': 64.107, 'reuss': 63.803, 'vrh': 63.955}"
mp-1094009,YAgO3,5,Y1 Ag1 O3,4.426715,4.426715,4.426715,90,90,90,cubic,Pm-3m,2.0007623,-6.369843766,-1.530661327,0.633616181,FALSE,4.685614887,0,FALSE,86.74504699,,
mp-1369676,YAgO3,30,Y1 Ag1 O3,6.42856308,6.428563841,11.47762573,90.00000099,89.99999844,120.0000154,hex_,P6_3cm,2.70E-06,-6.99294892,-2.153766482,0.010511026,FALSE,5.936794742,0.001,TRUE,410.7811382,,
mp-1369873,YAgO3,20,Y1 Ag1 O3,5.493739,6.027972,7.937536,90,90,90,ortho,Pnma,0.0009031,-6.923842615,-2.084660176,0.079617332,FALSE,6.185094103,0.0072,FALSE,262.8602746,,
mp-1418929,YAgO3,5,Y1 Ag1 O3,4.05442,4.05442,4.05442,90,90,90,cubic,Pm-3m,7.42E-05,-6.419932356,-1.580749917,0.583527591,FALSE,6.098528684,0,FALSE,66.6478596,,
mp-1215933,YAl3Ag,5,Y1 Al3 Ag1,4.203734,4.185893,6.39242542,70.88833288,70.80368733,90,tet,I-4m2,0.0001712,-12.75727839,-0.384123769,0.004861145,FALSE,4.628244711,0,FALSE,99.64094876,,
mp-4054,YAl3Ni,20,Y1 Al3 Ni1,4.02710599,8.10956377,10.60833375,90,90,90,ortho,Pnma,8.80E-06,-5.295738009,-0.590546875,0,TRUE,4.381682752,0,FALSE,346.4477363,"{'voigt': 96.571, 'reuss': 96.431, 'vrh': 96.501}","{'voigt': 61.372, 'reuss': 58.05, 'vrh': 59.711}"
mp-3792,YAlO3,20,Y1 Al1 O3,5.17603105,5.31735851,7.37249317,90,90,90,ortho,Pnma,0,-8.731948185,-3.712238116,0.018835838,FALSE,5.364665646,5.5402,FALSE,202.911749,"{'voigt': 190.778, 'reuss': 189.342, 'vrh': 190.06}","{'voigt': 114.346, 'reuss': 109.259, 'vrh': 111.803}"
mp-756214,YAlO3,10,Y1 Al1 O3,5.246494706,5.246494706,5.246495449,60.84808332,60.84808332,60.84808278,trig,R-3c,1.51E-05,-8.704976543,-3.685266474,0.04580748,FALSE,5.229987876,4.9586,FALSE,104.0684716,,
mp-756705,YAlO3,30,Y1 Al1 O3,6.738056422,6.738056422,10.118139,90,90,120.1663627,ortho,Cmcm,0.0012721,-8.690346496,-3.670636427,0.060437527,FALSE,4.111223057,4.3247,TRUE,397.16418,,
mp-7964,YAlO3,10,Y1 Al1 O3,3.488568424,3.488568424,11.48382,90,90,120.000008,hex_,P6_3/mmc,2.60E-06,-8.648558362,-3.628848293,0.102225661,FALSE,4.496849927,3.4965,FALSE,121.0351365,,
mp-1100874,YBO3,20,Y1 B1 O3,4.520379,7.901444943,8.47554,90,90,124.8964625,ortho,Pnma,0.0009742,-9.092416329,-3.485943072,0.036316581,FALSE,3.951592047,4.7952,TRUE,248.2914312,,
mp-1100876,YBO3,10,Y1 B1 O3,3.951427249,3.986749114,8.411535,90,90,111.7159023,ortho,Ama2,0.0007171,-9.052236671,-3.445763414,0.076496239,FALSE,3.984978548,4.4,FALSE,123.1056119,,
mp-1216067,YBO3,10,Y1 B1 O3,4.562674618,3.598976581,8.298747,90,90,66.77864571,ortho,Cmcm,0.0005458,-9.078990353,-3.472517096,0.049742557,FALSE,3.917263093,4.2311,FALSE,125.2336672,,
mp-29205,YBO3,30,Y1 B1 O3,6.54242982,6.54242982,8.82893208,90,90,120.0812712,ortho,Cmcm,0,-9.12873291,-3.522259653,0,TRUE,4.500537513,5.1696,FALSE,327.0097546,,
mp-760457,YBO3,10,Y1 B1 O3,3.967622746,3.967622746,8.671747,90,90,117.3735266,ortho,Ama2,1.30E-06,-9.043673593,-3.437200336,0.085059317,FALSE,4.046782609,4.5981,FALSE,121.2254944,,
mp-1018643,YBPd3,5,Y1 B1 Pd3,4.325036,4.325036,4.325036,90,90,90,cubic,Pm-3m,6.50E-05,-19.95954693,-0.651283729,0.090775073,FALSE,8.599435523,0,FALSE,80.90384835,"{'voigt': 142.867, 'reuss': 142.867, 'vrh': 142.867}","{'voigt': 29.295, 'reuss': 12.066, 'vrh': 20.681}"
mp-1018644,YBPt3,5,Y1 B1 Pt3,4.344528,4.344528,4.344528,90,90,90,cubic,Pm-3m,5.72E-05,-37.24537271,-0.820751535,0.095610442,FALSE,13.87050003,0,FALSE,82.00263383,"{'voigt': 173.83, 'reuss': 173.83, 'vrh': 173.83}","{'voigt': 20.126, 'reuss': -19.279, 'vrh': 0.424}"
mp-29725,YBRh3,5,Y1 B1 Rh3,4.17882149,4.17882149,4.17882149,90,90,90,cubic,Pm-3m,0.0038927,-7.821756422,-0.765475046,0,TRUE,9.294131987,0,FALSE,72.97287522,"{'voigt': 181.021, 'reuss': 181.021, 'vrh': 181.021}","{'voigt': 88.598, 'reuss': 82.993, 'vrh': 85.796}"
mp-1358047,YBiO3,30,Y1 Bi1 O3,6.613613364,6.613613364,13.082135,90,90,119.9999936,hex_,P6_3cm,0.0082087,-7.726286742,-2.677684977,0.120114592,FALSE,6.954157064,2.065,FALSE,495.5493267,,
mp-1369528,YBiO3,20,Y1 Bi1 O3,5.887518,6.149466,8.667586,90,90,90,ortho,Pnma,0.0016562,-7.680666606,-2.632064841,0.165734728,FALSE,7.321032159,1.6856,TRUE,313.8107465,,
mp-1406000,YBiO3,10,Y1 Bi1 O3,3.845436637,3.845436637,13.152414,90,90,120.000011,hex_,P6_3/mmc,4.16E-05,-7.691130482,-2.642528717,0.155270852,FALSE,6.819974598,2.295,FALSE,168.4330736,,
mp-1424898,YBiO3,5,Y1 Bi1 O3,4.408542,4.408542,4.408542,90,90,90,cubic,Pm-3m,1.74E-05,-6.747321852,-1.698720087,1.099079482,FALSE,6.703400806,0,FALSE,85.68108313,,
mp-754152,YBiO3,10,Y1 Bi1 O3,6.15131421,6.15131421,6.151314269,58.73187914,58.73187914,58.7318815,trig,R-3,0.0004015,-7.798726501,-2.750124736,0.047674833,FALSE,7.187689457,2.4761,FALSE,159.8162094,,
mp-768221,YBiO3,10,Y1 Bi1 O3,6.165866778,6.165866778,6.165866687,58.51184125,58.51184125,58.51183334,trig,R3c,0.0003144,-7.81337911,-2.764777345,0.033022224,FALSE,7.174372127,3.0748,FALSE,160.1128661,,
mp-1215930,YBiTe3,5,Y1 Bi1 Te3,10.84009377,10.84009377,10.84009355,23.45862906,23.45862906,23.45862962,trig,R3m,0.0068538,-5.017752136,-1.051943438,0.027144716,FALSE,6.37659892,1.0247,TRUE,177.2584609,,
mp-1273178,YCoO3,20,Y1 Co1 O3,5.277178524,5.70734023,7.535437086,90.06302224,90.33811138,90.64618665,tri,P-1,5.9990223,-8.277534488,-2.580256242,0.011655867,FALSE,5.731863778,0.349,FALSE,226.9386773,,
mp-1288734,YCoO3,20,Y1 Co1 O3,5.237282321,5.745943143,7.489235914,90.64402726,89.99110148,90.09990999,mono,P2_1/c,12.0000001,-8.273725645,-2.576447398,0.01546471,FALSE,5.772017767,0.1607,TRUE,225.3599411,,
mp-1330514,YCoO3,30,Y1 Co1 O3,6.165754349,6.165754349,11.428332,90,90,120.0000037,hex_,P6_3cm,11.9996914,-8.266468038,-2.569189791,0.022722317,FALSE,5.185728068,0.0073,FALSE,376.2581359,,
mp-1387356,YCoO3,10,Y1 Co1 O3,3.630887787,3.630887787,11.219736,90,90,119.9999961,hex_,P6_3/mmc,4.0105039,-8.182845361,-2.485567114,0.106344994,FALSE,5.077330605,0,FALSE,128.0969948,,
mp-1435972,YCoO3,5,Y1 Co1 O3,3.785831,3.785831,3.785831,90,90,90,cubic,Pm-3m,0.00033,-8.058154954,-2.360876707,0.231035401,FALSE,5.993226886,0.833,FALSE,54.26048475,,
mp-22668,YCoO3,20,Y1 Co1 O3,5.145785841,5.430099988,7.366162014,89.99832555,90.00001076,89.99682046,ortho,Pnma,1.00E-07,-8.288485484,-2.591207237,0.000704872,FALSE,6.319803567,0,FALSE,205.8262682,,
mp-1336975,YCrO3,30,Y1 Cr1 O3,6.086927758,6.086927758,12.012846,90,90,119.9999974,hex_,P6_3cm,17.9991696,-9.234290786,-3.033086389,0.157926261,FALSE,4.882697319,1.3989,TRUE,385.4542581,,
mp-1387900,YCrO3,10,Y1 Cr1 O3,3.479088066,3.479088066,11.8855569,90,90,120.0000081,hex_,P6_3/mmc,6.0000004,-9.174724609,-2.973520212,0.217492438,FALSE,5.035358774,0,FALSE,124.5893661,,
mp-18725,YCrO3,20,Y1 Cr1 O3,5.24543586,5.5395879,7.54985526,89.99998068,90.00033939,89.99999979,ortho,Pnma,12.0000009,-9.392217048,-3.191012651,0,TRUE,5.719311185,2.4831,FALSE,219.3803195,,
mp-18770,YCrO3,5,Y1 Cr1 O3,3.853879,3.853879,3.853879,90,90,90,cubic,Pm-3m,2.9996268,-9.088909482,-2.887705085,0.303307565,FALSE,5.480083491,1.7679,FALSE,57.23928828,,
mp-1333124,YCuO3,30,Y1 Cu1 O3,6.182344407,6.182343951,11.02980383,89.99989964,89.99999926,119.9981799,hex_,P6_3cm,0,-7.509970871,-2.419534634,0.011914109,FALSE,5.470081203,0.0056,TRUE,365.1007653,,
mp-1340758,YCuO3,20,Y1 Cu1 O3,5.262028,5.66639,7.494229,90,90,90,ortho,Pnma,0.0025272,-7.498518463,-2.408082226,0.023366517,FALSE,5.958386638,0,FALSE,223.4531991,"{'voigt': 129.718, 'reuss': 108.184, 'vrh': 118.951}","{'voigt': 59.318, 'reuss': 53.215, 'vrh': 56.266}"
mp-1432347,YCuO3,5,Y1 Cu1 O3,3.782154,3.782154,3.782154,90,90,90,cubic,Pm-3m,0.0007474,-7.299427534,-2.208991297,0.222457446,FALSE,6.152301942,0,FALSE,54.10253627,,
mp-755109,YErO3,20,Y1 Er1 O3,5.682581,5.943749,8.37517,90,90,90,ortho,Pnma,0.0009774,-9.09208816,-3.907949495,0.097533515,FALSE,7.141933728,4.5444,TRUE,282.8783612,,
mp-1275986,YFeO3,20,Y1 Fe1 O3,3.543624676,12.1601606,6.129449404,75.40342711,90.00431811,81.61830938,hex_,P6_3/mmc,19.9999994,-8.786369047,-2.821769902,0.008711736,FALSE,5.066710991,0,FALSE,252.6825218,,
mp-1376289,YFeO3,30,Y1 Fe1 O3,6.100083197,6.100080234,11.68533091,90.00000931,89.99998999,119.9988644,hex_,P6_3cm,30.0089011,-8.781297639,-2.816698494,0.013783144,FALSE,5.099700508,1.2742,FALSE,376.5719109,,
mp-1416093,YFeO3,5,Y1 Fe1 O3,3.883222,3.883222,3.883222,90,90,90,cubic,Pm-3m,4.9994462,-8.454524802,-2.489925657,0.340555981,FALSE,5.465937801,0.6373,FALSE,58.5567087,,
mp-20783,YFeO3,20,Y1 Fe1 O3,5.287706432,5.61975183,7.624140259,90.00052352,89.98426248,90.00015988,ortho,Pnma,20.0068319,-8.783262869,-2.818663723,0.011817914,FALSE,5.651009028,1.5605,TRUE,226.5558777,,
mp-1215945,YGa3Cu,5,Y1 Ga3 Cu1,6.050809339,6.050809339,6.050809339,140.8916621,140.8916621,56.50190632,tet,I-4m2,0,-4.396055404,-0.457538157,0.013742773,FALSE,6.867173259,0,FALSE,87.4429006,,
mp-1104503,YGa3Ru,15,Y1 Ga3 Ru1,6.3892472,6.3892472,6.3892472,90,90,90,cubic,Pm-3m,6.00E-07,-5.553980832,-0.58042441,0,TRUE,7.623454426,0,FALSE,260.8249146,,
mp-17853,YGaO3,30,Y1 Ga1 O3,6.13362246,6.13362246,11.731544,90,90,120.000005,hex_,P6_3cm,0.004017,-8.002057152,-3.125843045,0.026932728,FALSE,5.386016237,2.9043,TRUE,382.2256825,,
mp-768889,YHoO3,30,Y1 Ho1 O3,6.425064307,6.425064307,12.76526,90,90,120.0000032,hex_,P6_3cm,0.0011362,-9.091635003,-3.901504207,0.089211476,FALSE,6.589520283,3.0775,FALSE,456.3680586,,
mp-504607,YInO3,30,Y1 In1 O3,6.290522379,6.290522344,12.28582555,90.00000511,89.99999218,120.0001276,hex_,P6_3cm,0,-7.791829652,-2.9694,0.004569655,FALSE,5.95681029,2.0517,FALSE,421.0249556,,
mp-1101170,YLuO3,20,Y1 Lu1 O3,5.604801,5.890575,8.218506,90,90,90,ortho,Pnma,0.0098952,-9.13767567,-3.962743276,0.07608447,FALSE,7.634373219,4.7426,TRUE,271.3380902,,
mp-754226,YLuO3,10,Y1 Lu1 O3,3.667092147,3.667092147,12.750389,90,90,120.0000027,hex_,P6_3/mmc,0.010526,-9.140512512,-3.965580118,0.073247628,FALSE,6.975196624,3.3403,TRUE,148.4901689,,
mp-1232166,YMgS3,20,Y1 Mg1 S3,7.253632357,12.000859,7.268454538,90,126.0741365,90,mono,C2/m,0.019713,-5.61311514,-1.502187096,0.355176954,FALSE,2.719813565,0,FALSE,511.3976916,,
mp-1237973,YMgS3,10,Y1 Mg1 S3,6.924409257,6.924409257,6.788429894,73.7108485,73.7108485,111.7607614,mono,C2/m,1.9999903,-5.654397912,-1.543469868,0.313894181,FALSE,2.656565939,0.1962,FALSE,261.786534,,
mp-1232305,YMgSe3,10,Y1 Mg1 Se3,7.282711997,7.282711997,6.732510433,73.02566902,73.02566902,110.4041302,mono,C2/m,0.0004402,-5.151392949,-1.425933759,0.290010392,FALSE,4.043168126,0,FALSE,287.5663416,,
mp-1232338,YMgSe3,30,Y1 Mg1 Se3,6.913948,6.913948339,19.304446,90,90,119.9999984,trig,R-3,2.6952541,-5.220258454,-1.494799264,0.221144887,FALSE,4.364564214,0,FALSE,799.1719285,,
mp-1434307,YMnO3,5,Y1 Mn1 O3,3.872255,3.872255,3.872255,90,90,90,cubic,Pm-3m,3.9989824,-8.80542923,-2.702431269,0.325051983,FALSE,5.486572954,0,FALSE,58.06198078,,
mp-19227,YMnO3,10,Y1 Mn1 O3,3.58206689,3.582066122,11.25355968,90,90,119.9999978,hex_,P6_3/mmc,7.9999995,-9.110961162,-3.0079632,0.019520052,FALSE,5.094893988,0.0367,TRUE,125.051196,,
mp-19385,YMnO3,30,Y1 Mn1 O3,6.137989787,6.137990098,11.44042308,90.00000087,89.99999817,119.9993851,hex_,P6_3cm,24.0000002,-9.130481213,-3.027483252,0,TRUE,5.120548728,0,FALSE,373.2740106,,
mp-20699,YMnO3,20,Y1 Mn1 O3,5.336231,5.889455,7.49551,90,90,90,ortho,Pnma,15.9988545,-9.107385957,-3.004387995,0.023095257,FALSE,5.409312605,0.4052,TRUE,235.5650831,,
mp-989604,YMoN3,20,Y1 Mo1 N3,6.210994478,7.217226452,7.217225407,98.60305958,105.7173708,74.2826227,mono,C2/c,0,-9.56675606,-1.092841091,0,TRUE,5.043707675,1.9089,FALSE,298.7641609,,
mp-1371109,YMoO3,30,Y1 Mo1 O3,6.290547678,6.290547678,12.517474,90,90,119.9999966,hex_,P6_3cm,18.0012229,-9.178302571,-2.738577646,0.179430564,FALSE,5.408056638,0,FALSE,428.967373,,
mp-1379411,YMoO3,20,Y1 Mo1 O3,5.40189403,5.81564474,7.82605709,90,90,90,ortho,Pnma,11.9999997,-9.328163984,-2.888439059,0.029569151,FALSE,6.290530791,2.2163,TRUE,245.8594699,,
mp-1445377,YMoO3,10,Y1 Mo1 O3,3.632318292,3.632318292,12.629857,90,90,120.0000053,hex_,P6_3/mmc,5.9916488,-9.12989572,-2.690170795,0.227837415,FALSE,5.358551394,0,FALSE,144.3101365,,
mp-1503976,YMoO3,5,Y1 Mo1 O3,4.088208,4.088208,4.088208,90,90,90,cubic,Pm-3m,2.988423,-8.753013688,-2.313288763,0.604719447,FALSE,5.658682029,0,FALSE,68.32803813,,
mp-8467,YNiGe3,10,Y1 Ni1 Ge3,4.06618076,4.08783135,10.94461726,90,100.7055416,90,ortho,Cmmm,0,-5.802276762,-0.570614413,0,TRUE,6.79101423,0,FALSE,178.7535628,,
mp-1346989,YNiO3,30,Y1 Ni1 O3,6.180908566,6.180908566,11.359736,90,90,120.0000061,hex_,P6_3cm,6.0011188,-7.821909747,-2.395287508,0.070424734,FALSE,5.185134837,0.0065,TRUE,375.8404176,,
mp-1399857,YNiO3,10,Y1 Ni1 O3,3.547474344,3.547474344,11.365723,90,90,120.0000064,hex_,P6_3/mmc,1.926362,-7.63778598,-2.211163741,0.254548501,FALSE,5.244161819,0,FALSE,123.8700171,,
mp-1433326,YNiO3,5,Y1 Ni1 O3,3.756882,3.756882,3.756882,90,90,90,cubic,Pm-3m,1.0014157,-7.682370102,-2.255747863,0.209964379,FALSE,6.125331853,0,FALSE,53.02524252,,
mp-19242,YNiO3,20,Y1 Ni1 O3,5.1637085,5.5062684,7.38760105,90,90,90,ortho,Pnma,3.9999993,-7.892334481,-2.465712242,0,TRUE,6.185143049,0,FALSE,210.0499241,,
mp-979436,YOsO3,5,Y1 Os1 O3,3.964378,3.964378,3.964378,90,90,90,cubic,Pm-3m,0.0129782,-8.362913752,-1.846845363,0.73462099,FALSE,8.71865867,0,FALSE,62.30532592,"{'voigt': 202.703, 'reuss': 202.703, 'vrh': 202.703}","{'voigt': -8.061, 'reuss': -202.382, 'vrh': -105.222}"
mp-1018629,YPd3C,5,Y1 Pd3 C1,4.299661,4.299661,4.299661,90,90,90,cubic,Pm-3m,0.0060285,-6.498267538,-0.242787053,0.438169278,FALSE,8.77765003,0,FALSE,79.48819715,"{'voigt': 153.404, 'reuss': 153.404, 'vrh': 153.404}","{'voigt': 29.97, 'reuss': 11.122, 'vrh': 20.546}"