mp_id,formula,sites,composition,a_edge (angstrom),b_edge (angstrom),c_edge (angstrom),alpha_ang (deg),beta_ang (deg),gamma_ang (deg),crystal_system,space_group,total_magnetisation (bohr),energy_per_atom (eV/atom),formation_energy (eV/atom),energy_above_hull (eV/atom),stable,density (g/cc),band_gap (eV),direct_bandgap,volume (cubic-angstrom),bulk_modulus (GPa),shear_modulus (GPa)
mp-776984,HoInO3,20,Ho1 In1 O3,5.52587,5.85997,8.188104,90,90,90,ortho,Pnma,0,-7.379248307,-2.939101062,0.071712354,FALSE,8.210465328,2.9036,TRUE,265.1425364,,
mp-770472,HoLuO3,20,Ho1 Lu1 O3,5.576018,5.849431,8.258771,90,90,90,ortho,Pnma,0.000163,-8.785912626,-3.993262639,0.082408869,FALSE,9.564684279,4.9114,TRUE,269.3724731,,
mp-1232139,HoMgS3,10,Ho1 Mg1 S3,6.96737106,6.96737106,6.649038956,76.85721342,76.85721342,118.9326283,mono,C2/m,0.005866,-5.23454461,-1.505898973,0.355510138,FALSE,3.752482829,0,FALSE,252.6157847,,
mp-1232153,HoMgS3,30,Ho1 Mg1 S3,6.649669,6.649669007,18.000186,90,90,120.0000049,trig,R-3,4.2572474,-5.357413702,-1.628768066,0.232641046,FALSE,4.125653906,0,FALSE,689.2990173,,
mp-1232140,HoMgSe3,10,Ho1 Mg1 Se3,7.340910381,7.340910381,6.888387621,76.39953926,76.39953926,119.0200115,mono,C2/m,1.19E-05,-4.727275368,-1.384098585,0.328701522,FALSE,4.919943819,0,FALSE,287.6378925,,
mp-1232172,HoMgSe3,30,Ho1 Mg1 Se3,6.890471,6.890470811,19.278401,90,90,119.9999961,trig,R-3,1.436045,-4.843241417,-1.500064635,0.212735472,FALSE,5.355845391,0,FALSE,792.6828549,,
mp-1181443,HoMnO3,20,Ho1 Mn1 O3,5.976331,13.074903,3.374556,90,90,90,ortho,Pnma,16.0053175,-8.477303851,-2.756588296,0.311694742,FALSE,6.747421478,1.0638,TRUE,263.6876308,,
mp-1193069,HoMnO3,30,Ho1 Mn1 O3,6.117400843,6.117400843,12.543845,90,90,125.3910233,ortho,Cmc2_1,24.0069763,-8.473091854,-2.7523763,0.315906739,FALSE,6.973972823,0.4942,FALSE,382.6825029,,
mp-19056,HoMnO3,30,Ho1 Mn1 O3,6.107331392,6.107331675,11.40796997,90.00001482,90.00000886,119.9997037,hex_,P6_3cm,24,-8.788998593,-3.068283038,0,TRUE,7.242284251,0,FALSE,368.5049195,,
mp-22081,HoMnO3,20,Ho1 Mn1 O3,5.312082,5.85681,7.477837,90,90,90,ortho,Pnma,16.0015293,-8.760399524,-3.03968397,0.028599069,FALSE,7.647609381,0.4351,FALSE,232.6493803,,
mp-1079921,HoNiGe3,10,Ho1 Ni1 Ge3,10.9123359,10.9123359,4.06326307,90,90,158.6064482,ortho,Cmmm,0,-5.410823922,-0.56144398,0,TRUE,8.308467373,0,FALSE,176.4947887,,
mp-18974,HoNiO3,20,Ho1 Ni1 O3,5.13100678,5.49720193,7.36043418,90,90,90,ortho,Pnma,4,-7.551576216,-2.507236384,0,TRUE,8.690128359,0,FALSE,207.6097341,,
mp-22664,HoRh3C,5,Ho1 Rh3 C1,4.14152903,4.14152903,4.14152903,90,90,90,cubic,Pm-3m,1.70E-06,-7.697408394,-0.51355468,0,TRUE,11.35264573,0,FALSE,71.03659393,,
mp-1184833,HoRhO3,5,Ho1 Rh1 O3,3.937435,3.937435,3.937435,90,90,90,cubic,Pm-3m,0.0004336,-7.347871008,-1.986696938,0.600743014,FALSE,8.591476634,0,FALSE,61.04360765,,
mp-1212108,HoRhO3,20,Ho1 Rh1 O3,5.20253763,5.73954677,7.55043384,90,90,90,ortho,Pnma,2.00E-07,-7.948614022,-2.587439952,0,TRUE,9.30471898,0.9606,TRUE,225.4575253,,
mp-1206820,HoRu3C,5,Ho1 Ru3 C1,4.12808859,4.12808859,4.12808859,90,90,90,cubic,Pm-3m,4.40E-06,-8.557251256,-0.22734074,0,TRUE,11.33391436,0,FALSE,70.34723407,,
mp-1207180,HoSbO3,5,Ho1 Sb1 O3,4.246295,4.246295,4.246295,90,90,90,cubic,Pm-3m,0.0001861,-6.577825058,-1.863712314,1.076734553,FALSE,7.258709678,0,FALSE,76.56503528,,
mp-31121,HoScO3,20,Ho1 Sc1 O3,5.437512,5.733318,7.974802,90,90,90,ortho,Pnma,0.0004216,-9.11987672,-3.965070403,0.036679872,FALSE,6.889822698,4.476,TRUE,248.6143361,,
mp-1189393,HoScS3,20,Ho1 Sc1 S3,6.369949,6.991898,9.53923,90,90,90,ortho,Pna2_1,1.00E-06,-15.9375106,-2.260544898,0.01290025,FALSE,4.785214721,1.7663,FALSE,424.858547,,
mp-1069461,HoSi3Ir,5,Ho1 Si3 Ir1,5.704555446,5.704555446,5.704555446,137.2459656,137.2459656,62.05982257,tet,I4mm,0,-6.713060412,-0.770646865,0,TRUE,8.670169694,0,FALSE,84.53909359,,
mp-1184813,HoSiO3,5,Ho1 Si1 O3,3.7096,3.7096,3.7096,90,90,90,cubic,Pm-3m,0.0051438,-7.757031606,-2.783655504,0.757057173,FALSE,7.839893361,0,FALSE,51.04829586,,
mp-973977,HoSnO3,5,Ho1 Sn1 O3,4.351836,4.351836,4.351836,90,90,90,cubic,Pm-3m,0.9619467,-6.82203584,-2.131808973,0.869262274,FALSE,6.681846651,0,FALSE,82.41714413,"{'voigt': 90.383, 'reuss': 90.383, 'vrh': 90.383}","{'voigt': 40.212, 'reuss': 28.967, 'vrh': 34.59}"
mp-755236,HoTiO3,20,Ho1 Ti1 O3,5.328055,5.692451,7.674495,90,90,90,ortho,Pnma,3.9895641,-9.103026565,-3.635615666,0.058383068,FALSE,7.442029853,0,FALSE,232.7650697,,
mp-1178178,HoTmO3,20,Ho1 Tm1 O3,5.606803,5.877711,8.333221,90,90,90,ortho,Pnma,0.000381,-8.747621375,-3.962808583,0.096007591,FALSE,9.235915198,4.4948,TRUE,274.6226953,,
mp-1224261,HoUTe3,20,Ho1 U1 Te3,4.275994,11.856418,12.06082,90,90,90,ortho,Pnma,0.9683781,-39.05928038,-1.244269689,0.170791854,FALSE,8.535543006,0,FALSE,611.4591174,,
mp-19024,HoVO3,20,Ho1 V1 O3,5.23261452,5.65391191,7.52519119,90,90,90,ortho,Pnma,8.0000001,-9.006434829,-3.301341118,0,TRUE,7.872520871,0,FALSE,222.6308365,,
mp-1021667,IClO3,5,I1 Cl1 O3,4.141923,4.141923,4.141923,90,90,90,cubic,Pm-3m,1.7877781,-3.60138986,0.041896598,0.671400418,FALSE,4.915834547,0,FALSE,71.05686829,,
mp-1181075,INO3,20,I1 N1 O3,6.827385,7.429918,8.003712,90,90,90,ortho,Pna2_1,1.2909983,-5.184532285,-0.24329761,0.424371453,FALSE,3.090528275,0,FALSE,406.0035839,,
mp-754661,INO3,20,I1 N1 O3,4.342469,7.422848,12.096245,90,90,90,ortho,P2_12_12_1,2.39E-05,-5.527965006,-0.586730331,0.080938732,FALSE,3.218138416,1.9762,FALSE,389.90416,,
mp-559377,IOF3,20,I1 O1 F3,5.05358546,5.44579822,11.09163673,90,90,90,ortho,P2_12_12_1,0,-4.089713606,-1.648431501,0,TRUE,4.349737874,3.637,FALSE,305.2507905,,
mp-1184913,InAsO3,5,In1 As1 O3,3.933194,3.933194,3.933194,90,90,90,cubic,Pm-3m,0.0007636,-5.649403552,-1.194767694,0.615440306,FALSE,6.488005853,0,FALSE,60.84657034,,
mp-7027,InBO3,10,In1 B1 O3,5.882060384,5.882060643,5.882061289,48.68871997,48.68872112,48.68872217,trig,R-3c,0,-7.315081527,-2.458591821,0,TRUE,5.473290411,2.6556,FALSE,105.3533531,,
mp-545379,InBiO3,5,In1 Bi1 O3,4.172779,4.172779,4.172779,90,90,90,cubic,Pm-3m,4.40E-06,-5.620489452,-1.321871238,0.496026063,FALSE,8.49724928,0.0452,FALSE,72.65678089,,
mp-556892,InBiO3,20,In1 Bi1 O3,5.710462,6.054819,8.418455,90,90,90,ortho,Pna2_1,0.0003956,-6.087572438,-1.788954224,0.028943077,FALSE,8.484176544,2.7352,FALSE,291.0749327,,
mp-561102,InBiO3,20,In1 Bi1 O3,5.678355,6.09561,8.203608,90,90,90,ortho,Pnma,0.0004888,-6.076592047,-1.777973833,0.039923469,FALSE,8.697008402,2.3884,FALSE,283.9517915,,
mp-1078776,InBiS3,10,In1 Bi1 S3,3.90412981,6.593652709,9.907466493,88.60311321,90,90,mono,P2_1/m,0,-21.60060294,-0.563430662,0.015075937,FALSE,5.470634665,1.38,TRUE,254.9669247,,
mp-1223842,InBiSe3,5,In1 Bi1 Se3,10.25690755,10.25690755,10.25690705,23.17547089,23.17547089,23.17547222,trig,R3m,0.0004279,-25.33811327,-0.535004307,0.025377895,FALSE,6.346121737,0.8234,FALSE,146.7082457,,
mp-1068786,InCo3N,5,In1 Co3 N1,3.82707053,3.82712609,3.82710757,90,90,90,cubic,Pm-3m,3.3569246,-14.30656178,-0.02455489,0.022525377,FALSE,9.053719845,0,FALSE,56.05442554,,
mp-755167,InCoO3,20,In1 Co1 O3,5.124142,5.313833,7.435169,90,90,90,ortho,Pnma,0.0002267,-6.48039367,-1.533098974,0.078910866,FALSE,7.275312124,0,FALSE,202.4509888,,
mp-1224030,InCuO3,5,In1 Cu1 O3,6.044282655,6.044282655,6.044282368,33.13839757,33.13839757,33.13839528,trig,R3m,0.0731777,-5.712232692,-1.371780006,0.051192437,FALSE,6.399315699,0,FALSE,58.73804231,,
mp-975443,InCuO3,5,In1 Cu1 O3,3.787341,3.787341,3.787341,90,90,90,cubic,Pm-3m,0.0027112,-5.246440988,-0.905988302,0.516984141,FALSE,6.919102679,0,FALSE,54.32543694,"{'voigt': 160.872, 'reuss': 160.872, 'vrh': 160.872}","{'voigt': 57.025, 'reuss': 54.952, 'vrh': 55.989}"
mp-617426,InFeBr3,20,In1 Fe1 Br3,3.721589,9.207578,15.284974,90,90,90,ortho,Pnma,16.0012161,-3.955092827,-0.727085915,0.264136746,FALSE,5.204169873,0,FALSE,523.7674681,,
mp-21094,InFeO3,10,In1 Fe1 O3,3.397549,3.397548105,12.360357,90,90,119.999999,hex_,P6_3/mmc,10.0006204,-7.017711596,-1.803096002,0.047483368,FALSE,5.877028897,1.2138,FALSE,123.5642946,,
mp-8098,InGaO3,10,In1 Ga1 O3,3.32960934,3.329608836,12.06608203,90,90,119.9999951,hex_,P6_3/mmc,0,-6.255757647,-2.129527091,0.002004937,FALSE,6.666407292,1.342,FALSE,115.846635,,
mp-1224212,InGaS3,25,In1 Ga1 S3,6.756379,6.757355807,15.5815936,81.4107076,85.32545575,60.0113165,tri,P1,0.0026946,-12.32882331,-0.703550597,0.076010366,FALSE,3.826015387,0.0452,TRUE,609.2148728,,
mp-1224507,InGaS3,10,In1 Ga1 S3,3.935248227,3.935248227,18.888809,90,90,120.0000038,trig,P3m1,0.6380464,-12.10632775,-0.48105503,0.298505932,FALSE,3.680423092,0,FALSE,253.3258181,,
mp-19885,InGaS3,10,In1 Ga1 S3,10.08237472,10.08237472,6.233365,90,90,158.2349664,ortho,Cmc2_1,5.64E-05,-12.38765524,-0.762382528,0.017178434,FALSE,3.968148566,1.6761,FALSE,234.9574809,,
mp-504951,InGaS3,30,In1 Ga1 S3,6.773408574,6.772367765,18.08691207,89.99981152,90.00044285,119.9871568,hex_,P6_1,0,-12.40483368,-0.779560963,0,TRUE,3.892238096,2.0937,FALSE,718.6195972,,
mp-504952,InGaSe3,30,In1 Ga1 Se3,7.058579737,7.059472485,18.97877713,90.0002276,89.99945352,119.9291293,hex_,P6_1,0,-16.0967653,-0.705555897,0,TRUE,5.122929557,1.3166,TRUE,819.5928047,,
mp-998233,InGeCl3,5,In1 Ge1 Cl3,5.549692736,5.549692736,5.647701176,89.78244714,89.78244714,85.23207619,mono,Cm,5.15E-05,-11.88866401,-0.907087076,0.029272845,FALSE,2.814671219,2.2217,TRUE,173.3398216,,
mp-998569,InGeCl3,10,In1 Ge1 Cl3,7.82655071,7.82655071,7.826550691,60.53104588,60.53104588,60.53104374,trig,R3c,0.0006271,-11.89860735,-0.917030421,0.0193295,FALSE,2.844327917,3.2685,TRUE,343.0649497,,
mp-1070713,InNi3N,5,In1 Ni3 N1,3.83985571,3.83985571,3.83985571,90,90,90,cubic,Pm-3m,3.00E-05,-13.67254968,-0.142051176,0,TRUE,8.94270255,0,FALSE,56.61672131,,
mp-1223697,InNi3Sb,5,In1 Ni3 Sb1,4.181508915,4.181508915,5.225062,90,90,120.0120071,hex_,P-6m2,0.0008934,-16.97006673,-0.124055209,0.062917151,FALSE,8.661717233,0,FALSE,79.11076336,,
mp-1184799,InOsO3,5,In1 Os1 O3,3.973267,3.973267,3.973267,90,90,90,cubic,Pm-3m,0.0037363,-6.90046919,-1.134384352,0.467179733,FALSE,9.34624988,0,FALSE,62.72537273,,
mp-675295,InPF3,5,In1 P1 F3,5.179715066,5.179715066,5.179714938,73.0433364,73.0433364,73.04333687,trig,R3,0.9999907,-9.762636304,-1.57231024,0.639617179,FALSE,2.718575942,1.2253,FALSE,123.864735,,
mp-998512,InPbCl3,10,In1 Pb1 Cl3,7.07929679,7.07929679,10.6529262,90,90,144.7973039,ortho,Cmcm,0,-20.58746295,-1.123254708,0.026258527,FALSE,4.622519918,2.5322,FALSE,307.7701151,,
mp-998535,InPbCl3,5,In1 Pb1 Cl3,5.759589183,5.759589183,5.757001593,89.83363079,89.83363079,88.85990248,mono,Cm,4.41E-05,-20.59558329,-1.13137505,0.018138185,FALSE,3.725507596,2.9011,FALSE,190.9368657,,
mp-20796,InPt3C,5,In1 Pt3 C1,4.258586,4.258586,4.258586,90,90,90,cubic,Pm-3m,0.0002378,-5.783079642,0.257168197,0.539015953,FALSE,15.31024168,0,FALSE,77.23181943,,
mp-1184773,InPtO3,5,In1 Pt1 O3,4.029858,4.029858,4.029858,90,90,90,cubic,Pm-3m,0.0014355,-5.468581876,-0.73374386,0.768916963,FALSE,9.081170067,0,FALSE,65.44390862,,
mp-1105819,InRhO3,20,In1 Rh1 O3,5.340653,5.498795,7.866305,90,90,90,ortho,Pnma,3.73E-05,-6.465118743,-1.471645817,0.073917505,FALSE,7.64017734,0.3222,TRUE,231.0110062,,
mp-1203220,InRhO3,40,In1 Rh1 O3,7.708572,7.708579,10.79162661,45.77266245,90,90,mono,P2_1/c,0.000383,-6.498414127,-1.504941201,0.04062212,FALSE,7.681880257,1.0391,TRUE,459.5138158,,
mp-1212207,InRhO3,20,In1 Rh1 O3,5.341129,5.529847,8.244579,90,90,90,ortho,Pnma,0.0011418,-6.204619183,-1.211146257,0.334417065,FALSE,7.248054405,0,FALSE,243.5088033,,
mp-1184765,InSbO3,5,In1 Sb1 O3,4.106234,4.106234,4.106234,90,90,90,cubic,Pm-3m,0.0128494,-5.761112204,-1.414700604,0.458201841,FALSE,6.825218972,0,FALSE,69.23585887,,
mp-21365,InSbS3,20,In1 Sb1 S3,3.8395774,9.40747945,13.5820799,90,90,90,ortho,Pnma,0,-14.99957946,-0.521598793,0,TRUE,4.505408611,1.4761,FALSE,490.5948513,,
mp-1212011,InSbSe3,20,In1 Sb1 Se3,4.08704,9.99368,14.103916,90,90,90,ortho,Pnma,0.0053068,-18.72232969,-0.478412326,0.007178702,FALSE,5.459042909,1.102,FALSE,576.068383,,
mp-1184751,InSiO3,5,In1 Si1 O3,3.663019,3.663019,3.663019,90,90,90,cubic,Pm-3m,0.0037087,-6.668208518,-2.06253356,0.565854375,FALSE,6.449727695,0,FALSE,49.14932005,,
mp-567931,InSiTe3,10,In1 Si1 Te3,7.12039536,7.120395165,7.48873665,90,90,119.9999922,trig,P-31m,0,-21.82700137,-0.306195786,0,TRUE,5.309731157,0.4816,FALSE,328.8118262,,
mp-574250,InSiTe3,5,In1 Si1 Te3,7.389027171,7.389027171,5.196314,90,90,119.9999926,trig,P3,0.8895683,-21.4782217,0.042583879,0.348779665,FALSE,3.552952392,0,FALSE,245.6974096,,
mp-1224379,InSnBr3,40,In1 Sn1 Br3,12.54999285,12.06325353,11.93547416,63.05723904,58.9686343,57.97412667,ortho,Fmm2,0.0021586,-3.350720661,-1.01480362,0.063128857,FALSE,4.942728267,1.5767,TRUE,1271.902424,,
mp-685272,InSnBr3,80,In1 Sn1 Br3,12.059662,12.22797743,18.03637887,90.38692803,89.9810797,94.97603382,tri,P1,0.0007135,-3.370163891,-1.034246851,0.043685627,FALSE,4.745273501,2.0441,FALSE,2649.654677,,
mp-998398,InSnBr3,5,In1 Sn1 Br3,5.932798,5.959625999,5.985729786,85.0633274,87.21602851,88.38034629,tri,P1,0.0004384,-3.383548804,-1.047631763,0.030300714,FALSE,3.732407261,1.0975,TRUE,210.5433445,,
mp-998555,InSnBr3,10,In1 Sn1 Br3,8.259506711,8.259506711,8.259505923,59.35077767,59.35077767,59.35077677,trig,R3c,0.0002997,-3.393821434,-1.057904393,0.020028084,FALSE,4.00386389,1.7551,TRUE,392.5375735,,
mp-1224255,InSnCl3,40,In1 Sn1 Cl3,11.97861142,11.57359828,11.43199059,62.75254982,59.20202012,58.04543006,ortho,Fmm2,0.0032988,-3.717824643,-1.254953527,0.047382566,FALSE,4.044113455,1.8708,FALSE,1116.478354,,
mp-998560,InSnCl3,5,In1 Sn1 Cl3,5.669548063,5.669548063,5.776513428,88.63860675,88.63860675,88.79573021,mono,Cm,6.30E-05,-3.745110082,-1.282238966,0.020097127,FALSE,3.041985584,2.0788,TRUE,185.5352782,,
mp-998567,InSnCl3,10,In1 Sn1 Cl3,8.133889658,8.133889658,8.133889768,58.70701167,58.70701167,58.70700779,trig,R-3,0.0011123,-3.765207209,-1.302336093,0,TRUE,3.056734998,3.0433,FALSE,369.28006,,
mp-9200,K3AuO,5,K3 Au1 O1,5.22438571,5.22438571,5.22438571,90,90,90,cubic,Pm-3m,0,-3.202910128,-0.879719693,0,TRUE,3.845922409,0.5612,FALSE,142.59546,"{'voigt': 18.66, 'reuss': 18.66, 'vrh': 18.66}","{'voigt': 11.981, 'reuss': 11.327, 'vrh': 11.654}"
mp-28166,K3BrO,5,K3 Br1 O1,5.19026401,5.19026401,5.19026401,90,90,90,cubic,Pm-3m,0,-3.560015648,-1.564212306,0,TRUE,2.532004578,0.8913,TRUE,139.8196943,"{'voigt': 19.399, 'reuss': 19.399, 'vrh': 19.399}","{'voigt': 13.147, 'reuss': 12.437, 'vrh': 12.792}"
mp-1070737,K3CO,5,K3 C1 O1,5.231062,5.231062,5.231062,90,90,90,cubic,Pm-3m,3,-3.312135066,0.202012067,1.05025853,FALSE,1.685621469,0.2972,FALSE,143.142831,,
mp-1223812,K3ClO,5,K3 Cl1 O1,5.13676547,5.146688008,5.143947179,89.54404141,90,90,mono,Pm,0,-3.659546362,-1.621424995,0.018001368,FALSE,2.0605616,0.9897,TRUE,135.9879191,,
mp-572291,K3ClO,20,K3 Cl1 O1,7.16195439,7.311946965,10.22990925,90.00404383,89.99970258,89.9990891,ortho,Pnma,0,-3.67715263,-1.639031264,0.0003951,FALSE,2.092230641,1.0785,TRUE,535.7181537,,
mp-673798,K3ClO,10,K3 Cl1 O1,5.24302534,10.08188548,7.138101564,45.07325321,90,90,ortho,Amm2,0,-3.670071289,-1.631949922,0.007476441,FALSE,2.097828318,1.0264,TRUE,267.1443431,,
mp-28171,K3IO,5,K3 I1 O1,5.29423015,5.29423015,5.29423015,90,90,90,cubic,Pm-3m,0,-3.419062858,-1.4458463,0,TRUE,2.911695035,1.0284,TRUE,148.3913039,"{'voigt': 18.587, 'reuss': 18.587, 'vrh': 18.587}","{'voigt': 12.806000000000001, 'reuss': 12.717, 'vrh': 12.762}"
mp-675156,K3NO,25,K3 N1 O1,5.218731,5.199099,25.79781071,88.27487677,90,90,mono,P2,9.999842,-3.522432936,-0.186363353,0.591432868,FALSE,1.748017726,0,FALSE,699.6469813,,
mp-1211900,K3SI,30,K3 S1 I1,13.99658237,13.99658237,8.213291,90,90,120.0000017,hex_,P6_3cm,0.000582,-3.041001119,-1.229704849,0.163133435,FALSE,1.975301449,1.0356,TRUE,1393.451453,,
mp-1185008,KAcO3,5,K1 Ac1 O3,4.65408,4.65408,4.65408,90,90,90,cubic,Pm-3m,0.0024861,-6.231918364,-2.212632815,0.207251153,FALSE,5.173812216,0,FALSE,100.8095167,,
mp-998553,KAgBr3,10,K1 Ag1 Br3,7.427913034,7.427912658,7.42791369,61.64015932,61.64014645,61.64015786,trig,R3c,8.00E-07,-2.955902001,-1.1788726,0,TRUE,4.274217928,0,FALSE,300.4501718,,
mp-998568,KAgBr3,5,K1 Ag1 Br3,5.353612944,5.339531111,5.35115276,89.88452946,89.97814515,90.03146015,tet,P4mm,5.00E-07,-2.947973085,-1.170943684,0.007928916,FALSE,4.197615572,0,FALSE,152.966546,,
mp-2464440,KAgCl3,5,K1 Ag1 Cl3,5.12817365,5.12817365,5.12884144,90,90,90,cubic,Pm-3m,1.30E-06,-10.35123414,-1.18494259,0.003795701,FALSE,3.118769565,0,FALSE,134.8791184,,
mp-998554,KAgCl3,5,K1 Ag1 Cl3,5.055190599,5.055300118,5.067238667,90.03159851,90.00151249,89.99824553,tet,P4mm,0.2725054,-10.35313399,-1.186842439,0.001895852,FALSE,3.248420437,0,FALSE,129.4958265,,
mp-998750,KAgCl3,10,K1 Ag1 Cl3,7.071671229,7.07167202,7.071671844,61.04256827,61.04257136,61.04257547,trig,R3c,1.53E-05,-10.35502985,-1.188738291,0,TRUE,3.287218952,0,FALSE,255.9348163,,
mp-1205357,KAgF3,20,K1 Ag1 F3,5.99687912,6.18287501,8.5032308,90,90,90,ortho,Pnma,7.01E-05,-4.056807444,-2.115058583,0,TRUE,4.296927275,0,FALSE,315.2824009,,
mp-13819,KAgF3,5,K1 Ag1 F3,4.313309,4.313309,4.313309,90,90,90,cubic,Pm-3m,9.72E-05,-4.050566124,-2.108817263,0.00624132,FALSE,4.220520619,0,FALSE,80.24753756,,
mp-976229,KAgO3,5,K1 Ag1 O3,4.192631,4.192631,4.192631,90,90,90,cubic,Pm-3m,1.6557594,-4.254392346,-0.490754263,0.326060585,FALSE,4.392837719,0,FALSE,73.69871633,,
mp-1097006,KAlH3,5,K1 Al1 H3,3.981683,3.981683,3.981683,90,90,90,cubic,Pm-3m,0.0051862,-4.70511343,-0.081973536,0.184462262,FALSE,1.817816729,0,FALSE,63.124804,,
mp-1184936,KAlO3,5,K1 Al1 O3,3.867014,3.867014,3.867014,90,90,90,cubic,Pm-3m,1.9998285,-6.000558208,-2.056392494,0.271128937,FALSE,3.275849265,0,FALSE,57.82654342,,
mp-1105278,KAsO3,20,K1 As1 O3,4.591781622,5.913656477,12.93258938,90.01812788,89.99684129,90.00160279,ortho,P2_12_12_1,0,-6.057301455,-1.928226401,0.01070901,FALSE,3.064430945,3.3848,TRUE,351.1743477,,
mp-1184937,KAsO3,5,K1 As1 O3,3.843473,3.843473,3.843473,90,90,90,cubic,Pm-3m,0.065477,-5.638646618,-1.509571564,0.429363847,FALSE,4.738502659,0,FALSE,56.7768774,,
mp-1192552,KAsO3,30,K1 As1 O3,7.559842347,7.563372239,10.31952457,85.72938349,111.2498839,106.8613524,tri,P-1,0,-6.062744606,-1.933669552,0.005265859,FALSE,3.068997674,3.1488,TRUE,525.9776901,,
mp-1194970,KAsO3,40,K1 As1 O3,4.90279138,11.38334748,11.51034733,90,90,90,ortho,Pbcn,0,-6.068010465,-1.938935411,0,TRUE,3.350431812,3.0119,TRUE,642.3945322,,
mp-1195114,KAsO3,120,K1 As1 O3,8.940644298,19.12823845,12.23769435,90,90.27242595,90,mono,P2_1/c,0,-6.065126112,-1.936051058,0.002884353,FALSE,3.085214667,3.1596,FALSE,2092.851852,,
mp-1112174,KAuBr3,5,K1 Au1 Br3,5.413378,5.413378,5.413378,90,90,90,cubic,Pm-3m,0.0024907,-2.96675448,-1.103536214,0.046329475,FALSE,4.980206612,0,FALSE,158.6372092,,
mp-1110854,KAuCl3,5,K1 Au1 Cl3,5.138475,5.138475,5.138475,90,90,90,cubic,Pm-3m,0.0012267,-3.282036358,-1.291864017,0.062613485,FALSE,4.190929775,0,FALSE,135.6759102,,
mp-1111868,KAuF3,5,K1 Au1 F3,4.4844,4.4844,4.4844,90,90,90,cubic,Pm-3m,0.2496345,-3.914434608,-1.886496883,0.1607116,FALSE,5.396258274,0,FALSE,90.18058156,,
mp-31045,KAuI3,20,K1 Au1 I3,9.46142359,7.368523763,13.45476131,59.10163995,90,90,mono,P2_1/c,0,-2.682272237,-0.886814323,0,TRUE,5.089763556,0.6459,FALSE,804.8974507,,
mp-1184942,KAuO3,5,K1 Au1 O3,4.15778,4.15778,4.15778,90,90,90,cubic,Pm-3m,1.3575593,-4.400781534,-0.550954586,0.364279868,FALSE,6.562651688,0,FALSE,71.8761022,,
mp-1223538,KBaN3,20,K1 Ba1 N3,14.06110916,13.34219538,7.195144682,80.38480049,69.31591885,30.29928066,ortho,F222,24.0011653,-4.250331078,1.362704502,1.851196041,FALSE,2.381288021,0,FALSE,609.3124687,,
mp-973447,KBaO3,5,K1 Ba1 O3,5.013731,5.013731,5.013731,90,90,90,cubic,Pm-3m,3.0000002,-4.821337168,-1.242491632,0.573607507,FALSE,2.956884366,0,FALSE,126.0326557,,
mp-1211678,KBeF3,20,K1 Be1 F3,4.45356696,5.41615052,11.98714706,90,90,90,ortho,P2_12_12_1,0,-5.52779316,-3.406749262,0,TRUE,2.414464242,7.0613,FALSE,289.1442399,,