mp_id,composition,a_edge (angstrom),b_edge (angstrom),c_edge (angstrom),alpha_ang (deg),beta_ang (deg),gamma_ang (deg),crystal_system,space_group,formation_energy (eV/atom),energy_above_hull (eV/atom),band_gap (eV),A_site,B_site,X_site
mp-1206805,Mn3 Sb1 N1,3.912712,3.912712,3.912712,90.0,90.0,90.0,cubic,Pm-3m,-0.245149532,0.137575635,0.0,Sb,N,Mn
mp-20330,Mn3 Si1 Ir1,6.376117,6.376117,6.376117,90.0,90.0,90.0,cubic,P2_13,-0.223413433,0.120905025,0.0,Si,Ir,Mn
mp-1210618,Mn3 Si1 Ni1,6.053513,6.053513,6.053513,90.0,90.0,90.0,cubic,P2_13,-0.307299339,0.084226907,0.0,Si,Ni,Mn
mp-20860,Mn3 Sn1 C1,3.893463,3.893463,3.893463,90.0,90.0,90.0,cubic,Pm-3m,-0.016241043,0.054929461,0.0,Sn,C,Mn
mp-1210555,Mn3 Sn1 H1,4.0039167,4.00388188,4.00389929,90.0,90.0,90.0,cubic,Pm-3m,-0.043645212,0.0,0.0,Sn,H,Mn
mp-505571,Mn3 Sn1 N1,3.878941,3.878941,3.878941,90.0,90.0,90.0,cubic,Pm-3m,-0.242732257,0.035761241,0.0,Sn,N,Mn
mp-2930,Mn3 Zn1 C1,3.875537,3.875537,3.875537,90.0,90.0,90.0,cubic,Pm-3m,-0.031497474,0.04248646,0.0,Zn,C,Mn
mp-672229,Mn3 Zn1 C1,4.592715,4.592715,4.592715,90.0,90.0,90.0,cubic,Pm-3m,1.99844268,2.072426614,0.0,Zn,C,Mn
mp-15805,Mn3 Zn1 N1,3.96245195,3.96249865,3.96233593,90.0,90.0,90.0,cubic,Pm-3m,-0.450575119,0.0,0.0,Zn,N,Mn
mp-1206344,Mn1 Ag1 F3,4.40991,4.40991,4.40991,90.0,90.0,90.0,cubic,Pm-3m,-1.341173783,0.931496059,0.0,Mn,Ag,F
mp-754229,Mn1 Ag1 O3,5.147896109,5.925007904,5.147656159,115.747344,59.99273269,115.7280241,trig,R-3,-1.188434383,0.082111078,0.0,Mn,Ag,O
mp-1258775,Mn1 Al1 O3,6.025762934,6.008548683,10.61448202,89.99296131,90.00154707,127.3606408,ortho,Cmc2_1,-2.543449412,0.176786014,0.9551,Mn,Al,O
mp-1260288,Mn1 Al1 O3,5.604452168,5.604452168,11.394884,90.0,90.0,120.000002,hex_,P6_3cm,-2.450509853,0.269725573,0.0,Mn,Al,O
mp-1368992,Mn1 Al1 O3,4.874014,4.959942,8.303278,90.0,90.0,90.0,ortho,Pnma,-2.572380491,0.147854935,0.5506,Mn,Al,O
mp-1399724,Mn1 Al1 O3,3.7592,3.7592,3.7592,90.0,90.0,90.0,cubic,Pm-3m,-1.430634495,1.289600931,0.0,Mn,Al,O
mp-1405591,Mn1 Al1 O3,4.862618,4.989619469,5.238190454,116.5449035,89.17355517,117.5952069,tri,P-1,2.231429801,4.951665227,0.0,Mn,Al,O
mp-1444809,Mn1 Al1 O3,3.230730647,3.230730647,11.463825,90.0,90.0,120.0000133,hex_,P6_3/mmc,-2.449177839,0.271057587,0.0,Mn,Al,O
mp-774250,Mn1 Al1 O3,4.856435825,5.24445539,4.972024429,63.53980408,117.7024026,91.0721288,tri,P-1,-2.673892615,0.046342811,1.2511,Mn,Al,O
mp-1185996,Mn1 B1 O3,3.397224,3.397224,3.397224,90.0,90.0,90.0,cubic,Pm-3m,-1.348097166,1.080994322,0.0,Mn,B,O
mp-1278986,Mn1 B1 O3,4.715451545,5.603886316,7.472260021,74.88653718,87.6674191,88.36872732,tri,P-1,-2.396754024,0.032337465,0.5986,Mn,B,O
mp-1289597,Mn1 B1 O3,4.684094857,5.457496313,7.343171333,75.2461238,86.0185133,87.58288049,mono,C2/c,-2.408723778,0.020367711,1.3314,Mn,B,O
mp-25296,Mn1 B1 O3,8.402535452,8.402535452,3.073034,90.0,90.0,119.9999957,hex_,P-6,-2.203307026,0.225784463,0.5716,Mn,B,O
mp-761288,Mn1 B1 O3,5.665336873,5.665341834,5.665336962,48.97987158,48.97983222,48.97986325,trig,R-3c,-2.384671213,0.044420275,0.0,Mn,B,O
mp-1105271,Mn1 Bi1 O3,5.737314,5.602912,7.75656,90.0,90.0,89.99995957,ortho,Pnma,-1.808453582,0.025675422,0.0,Mn,Bi,O
mp-1106239,Mn1 Bi1 O3,5.614531589,5.614531589,9.984488107,72.43527194,72.43527194,60.80682567,mono,Cc,-1.804228888,0.029900116,0.0958,Mn,Bi,O
mp-1194603,Mn1 Bi1 O3,5.578177,9.816608,10.02221537,68.60764875,90.0,90.0,mono,P2_1/c,-1.807916172,0.026212832,1.9011,Mn,Bi,O
mp-1202955,Mn1 Bi1 O3,5.670855,11.404948,15.845744,90.0,90.0,90.0,ortho,Pmn2_1,-1.799320334,0.03480867,0.0,Mn,Bi,O
mp-23477,Mn1 Bi1 O3,5.629016166,5.629451589,9.855650117,91.89493016,105.0568577,119.1639671,mono,C2/c,-1.805967583,0.028161421,1.4751,Mn,Bi,O
mp-556711,Mn1 Bi1 O3,5.486923,10.5001,11.04739496,60.65049686,90.0,90.0,mono,P2_1/c,-1.736261732,0.097867272,0.7775,Mn,Bi,O
mp-1078473,Mn1 C1 O3,4.867295906,6.199983994,7.702772452,73.78829314,89.88513274,89.53859001,tri,P-1,-1.9831487,0.030299367,3.0809,Mn,C,O
mp-1180142,Mn1 C1 O3,5.761126641,5.761126641,5.749886632,83.35397958,83.35397958,85.83176907,mono,C2/c,-0.968989607,1.04445846,0.3706,Mn,C,O
mp-1180143,Mn1 C1 O3,5.335177,5.970782,6.939448473,85.09257776,90.0,90.0,mono,P2_1/c,-1.740945973,0.272502095,0.1568,Mn,C,O
mp-1271783,Mn1 C1 O3,4.863172066,6.197282647,7.706737882,73.72312781,89.75279227,89.68064922,mono,P2/c,-1.983541507,0.029906561,3.7996,Mn,C,O
mp-18814,Mn1 C1 O3,5.858717084,4.777773563,4.777817668,59.98365385,65.94219262,65.94294854,trig,R-3c,-2.013448067,0.0,3.2291,Mn,C,O
mp-690525,Mn1 C1 O3,4.94286777,4.94286777,5.621692041,72.80355151,72.80355151,60.26117942,mono,Cc,-1.932027869,0.081420198,3.449,Mn,C,O
mp-695863,Mn1 C1 O3,11.27888128,4.632202553,6.49665639,128.9091062,150.2331535,43.65097718,mono,C2/c,-0.674351076,1.339096991,0.0,Mn,C,O
mp-1016854,Mn1 Cd1 O3,3.812762,3.812762,3.812762,90.0,90.0,90.0,cubic,Pm-3m,-1.411691313,0.279906975,0.0,Mn,Cd,O
mp-546798,Mn1 Cl1 O3,6.432041099,6.432041099,5.244794,90.0,90.0,109.3891939,ortho,Cmc2_1,-0.840292259,0.361621989,2.0431,Mn,Cl,O
mp-1210746,Mn1 Co3 C1,3.754344,3.754344,3.754344,90.0,90.0,90.0,cubic,Pm-3m,0.070739649,0.09446315,0.0,Mn,C,Co
mp-1181286,Mn1 Co1 O3,14.75635252,7.276308668,7.39650316,134.735778,152.5663213,22.51037197,mono,C2/m,-1.559977507,0.089941379,0.0,Mn,Co,O
mp-20641,Mn1 Co1 O3,5.389500902,5.389091229,5.389664773,54.3918906,54.38499087,54.38456968,trig,R-3,-1.649918886,0.0,0.0,Mn,Co,O
mp-1176440,Mn1 Cu1 O3,5.032592,5.032579864,5.424734394,117.6365668,62.36308346,120.0004214,trig,R-3,-1.426801527,0.04390752,0.0,Mn,Cu,O
mp-674482,Mn1 Fe1 O3,8.270182213,8.270182488,8.270182691,109.7098364,109.2708599,109.4332691,ortho,Ibca,-1.824259614,0.036245984,0.8193,Mn,Fe,O
mp-759744,Mn1 Fe1 O3,8.243295,8.261588644,8.266957752,109.3492699,108.5834952,109.5241117,tri,P1,-1.793923,0.066582598,0.0017,Mn,Fe,O
mp-1176435,Mn1 Ga1 O3,3.271002149,3.271002149,11.837017,90.0,90.0,120.000003,hex_,P6_3/mmc,-2.060712347,0.080745909,1.2823,Mn,Ga,O
mp-1106201,Mn1 Ge1 O3,5.258931025,6.778701717,6.778701729,85.86152995,81.69676187,81.69680816,mono,C2/c,-2.123705891,0.012176888,1.1435,Mn,Ge,O
mp-20798,Mn1 Ge1 O3,5.01850004,5.589420758,5.018469724,116.6755362,120.0000915,90.00123101,trig,R-3,-2.135882779,0.0,1.6732,Mn,Ge,O
mp-643577,Mn1 Ge1 O3,5.47413077,9.21015288,19.25117844,90.0,90.0,90.0,ortho,Pbca,-2.120971136,0.014911642,1.3076,Mn,Ge,O
mp-1080187,Mn1 Hg1 O3,3.886539,3.886539,3.886539,90.0,90.0,90.0,cubic,Pm-3m,-1.044812403,0.302727344,0.0,Mn,Hg,O
mp-28912,Mn1 In1 Br3,3.97685468,9.54234417,15.36261815,90.0,90.0,90.0,ortho,Pnma,-1.071247911,0.004096451,1.6242,Mn,In,Br
mp-1099572,Mn1 In1 F3,4.30803372,4.30892651,4.309700028,89.8985325,89.72196543,89.9582066,trig,R3m,-2.504217138,0.03230832,0.001,Mn,In,F
mp-1422819,Mn1 In1 F3,4.306319434,4.306319434,4.306319965,90.0386918,90.0386918,90.03870488,cubic,Pm-3m,-2.50417294,0.032352518,2.9035,Mn,In,F
mp-998241,Mn1 In1 F3,4.309147,4.311111222,4.313221071,89.799871,89.52549878,89.92994703,tri,P1,-2.504165874,0.032359584,2.4765,Mn,In,F
mp-1193780,Mn1 In1 O3,6.007907134,6.007761315,11.65488637,90.02436228,90.02414846,60.0294882,trig,P-3c1,-1.987354308,0.016639308,0.803,Mn,In,O
mp-550807,Mn1 In1 O3,3.461332,3.462840177,11.825444,90.00009385,89.99969598,60.01376697,hex_,P6_3/mmc,-1.981907783,0.022085833,0.0,Mn,In,O
mp-882825,Mn1 In1 O3,5.909193134,11.53908783,5.909202711,90.00024679,60.17520066,89.99977843,hex_,P6_3cm,-1.98943694,0.014556675,0.9207,Mn,In,O
mp-1069129,Mn1 N1 Cl3,4.504298,4.504298,4.504298,90.0,90.0,90.0,cubic,Pm-3m,0.007745649,0.957628997,0.0,Mn,N,Cl
mp-1180177,Mn1 N1 Cl3,6.643194725,6.643194725,9.495138,90.0,90.0,90.34296178,ortho,Cmcm,-0.014063738,0.935819609,0.0,Mn,N,Cl
mp-1190482,Mn1 N1 Cl3,6.947821,7.300399,8.620924,90.0,90.0,90.0,ortho,Pnma,-0.248574424,0.701308923,0.0,Mn,N,Cl
mp-1069166,Mn1 N1 F3,3.98307,3.98307,3.98307,90.0,90.0,90.0,cubic,Pm-3m,-0.714864636,1.498424255,0.0,Mn,N,F
mp-1078939,Mn1 N1 F3,3.93874,5.671741,5.717897,90.0,90.0,90.0,ortho,Pbam,-1.093822639,1.119466252,0.0,Mn,N,F
mp-1180159,Mn1 N1 F3,5.69489,5.69489,3.957069,90.0,90.0,90.0,tet,P4/mbm,-1.09494033,1.118348561,0.0,Mn,N,F
mp-1180181,Mn1 N1 F3,5.704336,5.713075,7.904008,90.0,90.0,90.0,ortho,Pnma,-1.09410194,1.119186951,0.0,Mn,N,F
mp-1180187,Mn1 N1 F3,5.603628,5.658279,8.054709,90.0,90.0,90.0,ortho,Pnma,-1.086237374,1.127051517,0.0,Mn,N,F
mp-1180705,Mn1 Ni1 O3,12.17356188,5.72228014,6.11209817,117.177366,144.6158594,35.54709974,mono,C2/m,-1.365809643,0.253462698,0.0,Mn,Ni,O
mp-19331,Mn1 Ni1 O3,5.341308382,5.341300442,5.34134469,54.7251048,54.72511675,54.7256067,trig,R-3,-1.619272341,0.0,0.0,Mn,Ni,O
mp-1210723,Mn1 P1 O3,8.309729,8.185271,10.52884739,55.12171106,90.0,90.0,mono,P2_1/c,-2.162157954,0.307573655,0.0,Mn,P,O
mp-1232516,Mn1 P1 S3,6.08366836,8.07864731,10.05708059,69.59153544,78.43518469,75.56881484,tri,P-1,-0.699814427,0.006663317,1.0298,Mn,P,S
mp-8613,Mn1 P1 S3,6.072013683,6.072013677,7.052871457,98.15974554,98.15974011,119.954182,mono,C2/m,-0.706477744,0.0,0.1562,Mn,P,S
mp-8695,Mn1 P1 Se3,7.831817512,7.831815774,7.831817417,48.22903535,48.22902317,48.22902874,trig,R-3,-0.540280137,0.0,0.0,Mn,P,Se
mp-1106337,Mn1 Pb1 O3,5.897647,5.066583,10.36071662,85.44347438,90.0,90.0,mono,P2/c,-1.638228625,0.076999948,0.0,Mn,Pb,O
mp-1188613,Mn1 Pb1 O3,10.046976,5.846058,5.405084781,90.0,91.9022851,90.0,mono,P2/c,-1.655090435,0.060138138,0.0,Mn,Pb,O
mp-37214,Mn1 Pb1 O3,3.914633,3.914633,3.914633,90.0,90.0,90.0,cubic,Pm-3m,-1.601353853,0.11387472,0.0,Mn,Pb,O
mp-510672,Mn1 Pb1 O3,5.607754087,5.594103473,13.85591761,88.94657284,87.89792105,59.91925256,mono,C2/c,-1.643322126,0.071906447,0.5499,Mn,Pb,O
mp-27818,Mn1 S1 O3,12.441068,5.496306,8.426418844,79.68425209,90.0,90.0,mono,P2_1/c,-1.872025174,0.072435846,4.1546,Mn,S,O
mp-560522,Mn1 S1 O3,8.043486867,8.04342912,8.042980806,109.2544024,109.2619731,109.2637162,trig,R-3,-1.871854144,0.072606875,3.339,Mn,S,O
mp-1199914,Mn1 Se1 O3,8.27751532,5.247181075,13.76165274,81.27241742,90.0,90.0,mono,P2_1/c,-1.642958424,0.00792151,3.3754,Mn,Se,O
mp-1202364,Mn1 Se1 O3,8.30745548,8.022583545,10.49618852,54.80173752,90.0,90.0,mono,P2_1/c,-1.650879935,0.0,3.0996,Mn,Se,O
mp-22224,Mn1 Se1 O3,5.208064,6.187389,8.016771,90.0,89.99993841,90.0,ortho,Pnma,-1.63062551,0.020254424,2.8433,Mn,Se,O
mp-1172857,Mn1 Si1 O3,9.18448892,5.320586065,9.592426475,77.01389573,90.0,90.0,mono,P2_1/c,-2.779933577,0.017926197,0.0,Mn,Si,O
mp-1180172,Mn1 Si1 O3,6.189765,9.093938388,11.60193766,69.90164721,86.38180366,84.18780114,tri,P-1,-2.502355654,0.29550412,1.1731,Mn,Si,O
mp-1180212,Mn1 Si1 O3,6.563765266,8.638238492,13.38316868,107.5687395,103.5290639,99.01218768,tri,P-1,-2.426283552,0.371576222,0.3329,Mn,Si,O
mp-1181218,Mn1 Si1 O3,5.97153001,8.86198514,13.08767707,112.8146796,90.94879758,90.32204255,tri,P-1,-2.681000551,0.116859223,1.9295,Mn,Si,O
mp-1289249,Mn1 Si1 O3,5.34225744,6.775902315,6.775898025,86.5107254,76.02439795,76.02474177,mono,C2/c,-2.78336718,0.014492594,0.0,Mn,Si,O
mp-17766,Mn1 Si1 O3,9.19633119,5.380386584,9.555939406,77.65203509,90.0,90.0,mono,P2_1/c,-2.779968236,0.017891538,2.8755,Mn,Si,O
mp-532143,Mn1 Si1 O3,10.27450598,10.27450598,10.27450598,109.1242751,109.1242751,110.1673626,tet,I4_1/a,-2.713830414,0.08402936,2.6502,Mn,Si,O
mp-560199,Mn1 Si1 O3,6.691622849,7.610895266,11.85264433,105.504035,92.44071505,94.38126199,tri,P-1,-2.788977392,0.008882381,2.9598,Mn,Si,O
mp-5945,Mn1 Si1 O3,6.819431,7.709099945,16.26500929,92.1642108,96.39317567,94.87071769,tri,P-1,-2.789071418,0.008788355,2.6058,Mn,Si,O
mp-647680,Mn1 Si1 O3,6.480352,8.127976055,12.41381273,103.0514044,89.64640537,100.1444924,tri,P-1,-2.488644066,0.309215708,0.0422,Mn,Si,O
mp-1181816,Mn1 Sn1 O3,13.38637984,7.021364087,6.070160106,132.1863161,148.9760028,37.20302107,tri,P-1,-1.929803401,0.154089912,0.1836,Mn,Sn,O
mp-20569,Mn1 Sn1 O3,5.72769094,5.727692945,5.727694711,55.99954758,55.99956278,55.99958216,trig,R-3,-2.083893313,0.0,0.8776,Mn,Sn,O
mp-691106,Mn1 Sn1 O3,5.457739231,5.715701212,5.459042913,89.99914042,59.9915232,61.49001909,trig,R3c,-2.061573716,0.022319597,0.2294,Mn,Sn,O
mp-1176417,Mn1 Te1 O3,5.502735,6.20807,7.879377,90.00004027,89.99960583,90.00011785,ortho,Pnma,-1.739849808,0.034447072,3.0063,Mn,Te,O
mp-1210642,Mn1 Te1 O3,5.587307,5.746398,8.227003,90.0,90.0,90.0,ortho,Pnma,-1.544032518,0.230264362,0.3621,Mn,Te,O
mp-30528,Mn1 Tl1 Cl3,7.04429626,7.06118299,10.04233389,90.0,90.0,90.0,ortho,Pnma,-1.41574947,0.024392236,1.2858,Mn,Tl,Cl
mp-570290,Mn1 Tl1 Cl3,5.069273,5.069273,5.069273,90.0,90.0,90.0,cubic,Pm-3m,-1.410833928,0.029307778,1.1477,Mn,Tl,Cl
mp-570300,Mn1 Tl1 Cl3,3.82193433,8.99668546,14.68728821,90.0,90.0,90.0,ortho,Pnma,-1.440141706,0.0,1.9323,Mn,Tl,Cl
mp-998762,Mn1 Tl1 F3,4.23368794,4.236250627,4.235429159,90.00372536,90.03225191,89.9966848,cubic,Pm-3m,-2.597415334,0.0,2.6304,Mn,Tl,F
mp-23443,Mn1 Tl1 I3,4.322928,10.240036,16.431021,90.0,90.0,90.0,ortho,Pnma,-0.753259861,0.017026594,0.0,Mn,Tl,I
mp-1311921,Mn1 Tl1 O3,5.640920216,5.551621462,7.836132757,87.99068527,88.49659013,88.57343192,tri,P-1,-1.493127196,0.06405138,0.0,Mn,Tl,O
mp-753819,Mn1 Tl1 O3,5.567051472,7.933636273,5.489055039,90.01328592,89.99774487,89.28677625,mono,P2_1/c,-1.495225087,0.061953488,0.0,Mn,Tl,O
mp-768374,Mn1 Tl1 O3,6.131814264,6.131814264,12.013444,90.0,90.0,120.0000028,hex_,P6_3cm,-1.526403397,0.030775178,0.0,Mn,Tl,O
mp-768432,Mn1 Tl1 O3,6.463075571,6.463075571,6.463075971,47.77813675,47.77813675,47.77813151,trig,R-3,-1.435292228,0.121886347,0.0,Mn,Tl,O
mp-770870,Mn1 Tl1 O3,5.421774,5.560387,7.965304,90.0,90.0,90.0,ortho,Pnma,-1.503441377,0.053737198,0.0,Mn,Tl,O
mp-1106224,Mn1 V1 O3,5.191411315,5.314814513,7.602011001,90.00163278,90.00061667,90.19251805,ortho,Pnma,-2.284756146,0.041752667,0.3157,Mn,V,O
mp-1016932,Mn1 Zn1 O3,3.738769,3.738769,3.738769,90.0,90.0,90.0,cubic,Pm-3m,-1.258271147,0.56117291,0.0,Mn,Zn,O
mp-754318,Mn1 Zn1 O3,5.404488559,5.404493409,5.404207917,54.57082941,54.570153,54.56824638,trig,R-3,-1.813649823,0.005794234,1.7946,Mn,Zn,O
mp-772528,Mn1 Zn1 O3,5.188248,7.405507,5.077817,90.0,90.0,90.0,ortho,Pnma,-1.721061605,0.098382452,0.1204,Mn,Zn,O
mp-1221539,Mo1 Br3 O1,3.924338477,11.74337872,11.73906185,90.0,90.49903344,90.0,mono,P2_1/c,-1.151260577,0.0,0.9067,Mo,O,Br
mp-23528,Mo1 Cl3 O1,14.274816,6.222478,6.254159292,87.69728263,90.0,90.0,mono,P2_1/c,-1.406384856,0.08272775,2.4544,Mo,O,Cl
mp-1221516,Mo1 H1 O3,7.749319792,7.749319792,3.956301446,88.74939257,88.74939257,29.65220609,mono,C2,-1.670378527,0.09047667,0.7623,Mo,H,O
mp-23396,Mo1 N1 Cl3,7.983925563,8.244399145,9.230664192,99.02765497,108.2184309,108.9142057,tri,P-1,-1.095291835,0.0,1.6768,Mo,N,Cl
mp-1186106,Mo1 Pb1 O3,4.107546,4.107546,4.107546,90.0,90.0,90.0,cubic,Pm-3m,-1.683171409,0.117750639,0.0,Mo,Pb,O
mp-1247498,Mo1 Ru1 N3,8.395553065,5.573767353,7.900263136,107.1216237,103.6919081,111.8508585,tri,P-1,0.10311817,0.32548434,0.0949,Mo,Ru,N
mp-1247512,Mo1 W1 N3,5.956011925,7.789977055,7.376578087,104.0241377,106.3041832,105.4997391,tri,P-1,-0.16069294,0.384697858,0.0,Mo,W,N
mp-1070665,N1 Cl1 O3,4.713392144,4.713392256,4.713392144,85.04043775,85.04044814,85.04043775,trig,R3m,0.890151648,1.411749977,0.0,N,Cl,O
mp-1180300,N1 Cl1 O3,5.034395636,5.034395636,3.997316304,81.68647511,81.68647511,108.2034122,mono,Cm,-0.424676556,0.096921773,2.0014,N,Cl,O
mp-1180304,N1 Cl1 O3,4.489662451,4.489662451,4.767638099,88.29474187,88.29474187,130.4654256,mono,Cm,0.189925112,0.711523441,0.0,N,Cl,O
mp-754712,N1 Cl1 O3,4.01463275,6.64170152,11.89242409,90.0,90.0,90.0,ortho,P2_12_12_1,-0.521598329,0.0,3.0976,N,Cl,O
mp-985586,Na3 Br1 O1,4.53313,4.53313,4.53313,90.0,90.0,90.0,cubic,Pm-3m,-1.615873121,0.0,1.8815,Br,O,Na
mp-28602,Na3 Cl1 O1,4.45871654,4.45871654,4.45871654,90.0,90.0,90.0,cubic,Pm-3m,-1.697610746,0.0,2.0299,Cl,O,Na
mp-769398,Na3 I1 O1,6.691748164,6.691748684,16.30793171,90.00000029,89.99999627,120.0014415,hex_,P6_3/mmc,-1.452116121,0.004069657,1.6831,I,O,Na
mp-1186101,Na1 Ag1 O3,4.112418,4.112418,4.112418,90.0,90.0,90.0,cubic,Pm-3m,-0.406951862,0.395609303,0.0,Na,Ag,O
mp-1186097,Na1 Al1 O3,3.75438,3.75438,3.75438,90.0,90.0,90.0,cubic,Pm-3m,-2.126357671,0.216979795,0.0,Na,Al,O
mp-17868,Na1 As1 O3,7.289213347,7.446254343,7.953300064,103.5388353,91.3965612,90.2517925,tri,P-1,-1.884905668,0.0,2.8628,Na,As,O
mp-976133,Na1 As1 O3,3.719232,3.719232,3.719232,90.0,90.0,90.0,cubic,Pm-3m,-1.580474757,0.304430912,0.0,Na,As,O
mp-28614,Na1 B1 Pt3,5.5548291,5.554828426,5.53961418,90.0,90.0,119.9999979,hex_,P6/mmm,-0.515345987,0.0,0.0,Na,B,Pt
mp-23729,Na1 Be1 H3,3.342892,3.342892,3.342892,90.0,90.0,90.0,cubic,Pm-3m,-0.147174734,0.126078057,0.9148,Na,Be,H
mp-976185,Na1 Be1 O3,3.589369,3.589369,3.589369,90.0,90.0,90.0,cubic,Pm-3m,-1.325980552,0.459261113,0.0,Na,Be,O
mp-23054,Na1 Bi1 O3,6.188547629,6.188547901,6.188547465,53.82550302,53.8255118,53.82551821,trig,R-3,-1.580260707,0.0,1.0964,Na,Bi,O
mp-1180213,Na1 Br1 O3,7.124209,7.685813231,8.166172108,87.44489844,85.89005659,78.73787479,tri,P1,-0.299050829,0.700010647,0.0,Na,Br,O
mp-1189541,Na1 Br1 O3,7.779176,7.779176,7.779176,90.0,90.0,90.0,cubic,P2_13,-0.866867695,0.132193781,4.5929,Na,Br,O
mp-1413617,Na1 Br1 O3,7.749286,7.387425,7.536830167,89.69588394,90.0,90.0,ortho,P2_12_12_1,-0.389889892,0.609171584,0.0,Na,Br,O
mp-23339,Na1 Br1 O3,6.64015405,6.64015405,6.64015405,90.0,90.0,90.0,cubic,P2_13,-0.999061476,0.0,4.4812,Na,Br,O
mp-608595,Na1 Br1 O3,7.536830314,7.749285304,7.387425298,89.94961561,89.69588643,89.80975002,mono,P2_1,-0.50058802,0.498473457,0.0808,Na,Br,O
mp-1120755,Na1 C1 O3,6.326281536,6.326281816,6.32628419,47.00053274,47.00033762,47.000409,trig,R-3c,-1.787712109,0.0,0.6623,Na,C,O
mp-727242,Na1 C1 O3,9.15164117,3.460615926,8.213215058,71.88998346,90.0,90.0,mono,P2_1/c,-1.785903875,0.001808234,0.6706,Na,C,O
mp-1078750,Na1 Ca1 H3,3.630551,6.814403247,6.865981052,117.0100006,99.71238681,95.21055401,tri,P-1,-0.452825836,0.064464225,1.9794,Na,Ca,H
mp-1078933,Na1 Ca1 H3,6.111790511,6.111790511,6.111790197,57.39224941,57.39224941,57.39225342,trig,R3c,-0.446903104,0.070386957,3.312,Na,Ca,H
mp-1221112,Na1 Ca1 N3,12.85193346,12.5086027,5.861908121,79.92474785,73.39075682,26.68449533,ortho,Fddd,1.251012683,1.721055264,0.0,Na,Ca,N
mp-1186118,Na1 Ca1 O3,4.506638,4.506638,4.506638,90.0,90.0,90.0,cubic,Pm-3m,-1.320090619,0.546416482,0.0,Na,Ca,O
mp-4360,Na1 Cd1 F3,5.987616054,5.987616657,5.987616973,57.13239183,57.13238765,57.1323863,trig,R3c,-2.662374418,0.0,3.482,Na,Cd,F
mp-976293,Na1 Cd1 O3,4.256636,4.256636,4.256636,90.0,90.0,90.0,cubic,Pm-3m,-0.608163461,0.474396422,0.0,Na,Cd,O
mp-1180278,Na1 Cl1 O3,8.44676,8.48323538,8.515754858,70.41140627,70.12355986,70.47163968,tri,P1,-0.700790981,0.41308131,1.2022,Na,Cl,O
mp-1180505,Na1 Cl1 O3,7.682388812,7.682388812,7.682389176,86.76561612,86.76561612,86.76560981,trig,R3,-0.411948523,0.701923768,0.6227,Na,Cl,O
mp-23330,Na1 Cl1 O3,6.689606,6.689606,6.689606,90.0,90.0,90.0,cubic,P2_13,,,5.6332,Na,Cl,O
mp-2720358,Na1 Cl1 O3,6.67544456,6.67544456,6.67544456,90.0,90.0,90.0,cubic,P2_13,-1.083986653,0.029885638,5.6459,Na,Cl,O
mp-555726,Na1 Cl1 O3,7.239993,7.239993,7.239993,90.0,90.0,90.0,cubic,P2_13,-1.045420048,0.068452243,5.7061,Na,Cl,O
mp-630949,Na1 Cl1 O3,5.90083,6.842051,9.181822617,75.31584662,90.0,90.0,mono,P2_1/c,-0.541031941,0.57284035,0.0,Na,Cl,O
mp-655586,Na1 Cl1 O3,7.294636,7.301923935,7.308964538,87.77943299,88.27086094,87.96063604,tri,P1,-0.603369736,0.510502555,0.0,Na,Cl,O
mp-1078336,Na1 Co1 F3,5.181276045,5.181276045,7.43604541,90.0,90.0,145.8479615,ortho,Cmcm,-2.593191533,0.005047058,2.2744,Na,Co,F
mp-21404,Na1 Co1 F3,5.36910055,5.57463889,7.70449501,90.0,90.0,90.0,ortho,Pnma,-2.598238591,0.0,2.9522,Na,Co,F
mp-1186126,Na1 Co1 O3,3.763369,3.763369,3.763369,90.0,90.0,90.0,cubic,Pm-3m,-1.059370683,0.222207793,0.0,Na,Co,O
mp-1076642,Na1 Cr1 O3,3.74807,3.74807,3.74807,90.0,90.0,90.0,cubic,Pm-3m,-1.708139925,0.296446778,0.0,Na,Cr,O
mp-17869,Na1 Cu1 F3,5.338206053,5.526096219,7.844604443,89.35495005,87.58387967,86.7059861,tri,P-1,-2.314495994,0.0,0.0809,Na,Cu,F
mp-505085,Na1 Cu1 F3,5.51324215,5.289499069,9.31335085,57.61218005,90.0,90.0,mono,P2_1/c,-2.310184742,0.004311252,0.0,Na,Cu,F