mp_id,formula,sites,composition,a_edge (angstrom),b_edge (angstrom),c_edge (angstrom),alpha_ang (deg),beta_ang (deg),gamma_ang (deg),crystal_system,space_group,total_magnetisation (bohr),energy_per_atom (eV/atom),formation_energy (eV/atom),energy_above_hull (eV/atom),stable,density (g/cc),band_gap (eV),direct_bandgap,volume (cubic-angstrom),bulk_modulus (GPa),shear_modulus (GPa)
mp-1206044,CrCoBr3,10,Cr1 Co1 Br3,7.08197949,7.08197949,5.943138,90,90,119.9999952,hex_,P6_3/mmc,4.0000001,-4.54526904,-0.205808281,0.768115015,FALSE,4.511140549,0,FALSE,258.1402918,,
mp-1205501,CrCoCl3,10,Cr1 Co1 Cl3,5.691366,6.57425762,6.57425762,119.9999962,90,90,hex_,P6_3/mmc,14.772684,-9.712790392,-0.359812349,0.780623854,FALSE,3.387465064,0,FALSE,213.0299181,,
mp-1183696,CrCuO3,5,Cr1 Cu1 O3,3.698777,3.698777,3.698777,90,90,90,cubic,Pm-3m,1.0001263,-6.743428026,-1.024200595,0.585032039,FALSE,5.366602669,0,FALSE,50.60278799,,
mp-1206130,CrFe3N,5,Cr1 Fe3 N1,3.80931,3.80931,3.80931,90,90,90,cubic,Pm-3m,8.5161222,-8.570452476,0.109825293,0.483840872,FALSE,7.015640585,0,FALSE,55.27629811,,
mp-1078458,CrFeO3,10,Cr1 Fe1 O3,5.04700635,5.046128036,5.409819622,62.18937193,117.814556,120.0042255,trig,R-3,15.9967779,-8.620241222,-2.026850883,0.009988678,FALSE,5.14892764,0,FALSE,100.5169479,,
mp-1244876,CrFeO3,80,Cr1 Fe1 O3,10.12006643,10.47822636,10.91000671,93.22044296,88.31479474,82.27422987,tri,P1,112.0011107,-7.871101631,-1.277711292,0.759128269,FALSE,3.619926268,0.7842,FALSE,1143.790129,,
mp-1244905,CrFeO3,80,Cr1 Fe1 O3,10.52185344,10.27602693,9.523828031,96.17737423,99.54326461,83.86445829,tri,P1,112.0000033,-8.199979078,-1.606588739,0.430250822,FALSE,4.118099469,0.102,FALSE,1005.423974,,
mp-1245072,CrFeO3,80,Cr1 Fe1 O3,10.35272736,10.12698983,9.956553453,85.0318583,86.49238464,88.16394058,tri,P1,116.0000505,-8.182853863,-1.589463524,0.447376037,FALSE,3.990322905,0.4785,FALSE,1037.619268,,
mp-1245144,CrFeO3,80,Cr1 Fe1 O3,10.25263577,10.89455767,9.426688667,92.83451381,94.62760904,95.69280771,tri,P1,112.0000102,-8.222476483,-1.629086144,0.407753417,FALSE,3.971338978,0.4407,FALSE,1042.57933,,
mp-1245147,CrFeO3,80,Cr1 Fe1 O3,10.0212608,10.93656827,9.347078628,91.27039424,93.00455529,89.38567011,tri,P1,110.0000007,-8.171789856,-1.578399517,0.458440044,FALSE,4.048469,0.4341,FALSE,1022.716472,,
mp-1245179,CrFeO3,80,Cr1 Fe1 O3,9.957239187,9.965952654,10.00374561,89.27478509,87.93391509,92.19663767,tri,P1,111.9999424,-8.231213584,-1.637823245,0.399016316,FALSE,4.177055683,0.4255,TRUE,991.2331188,,
mp-1245204,CrFeO3,80,Cr1 Fe1 O3,10.07227948,10.27269981,10.03446453,90.90018279,97.93299624,87.42766253,tri,P1,118.0004563,-8.248657106,-1.655266767,0.381572794,FALSE,4.030635954,0.6733,FALSE,1027.241353,,
mp-1245260,CrFeO3,80,Cr1 Fe1 O3,9.655590124,10.19567215,10.50062916,88.81757558,96.66938364,87.76435528,tri,P1,110.0000017,-8.222712766,-1.629322427,0.407517134,FALSE,4.036968378,0.4224,FALSE,1025.630013,,
mp-8829,CrGaSe3,20,Cr1 Ga1 Se3,3.76641143,10.26003063,12.49218408,90,90,90,ortho,Pnma,12.0000004,-5.495538904,-0.861763318,0,TRUE,4.934049389,0,FALSE,482.7416735,,
mp-1183712,CrGeO3,5,Cr1 Ge1 O3,3.743292,3.743292,3.743292,90,90,90,cubic,Pm-3m,3.9998534,-7.37115302,-1.547161352,0.606627581,FALSE,5.465313354,0,FALSE,52.45188717,,
mp-541449,CrGeTe3,10,Cr1 Ge1 Te3,8.22483787,8.224837554,8.224837076,49.62885504,49.62884833,49.62884945,trig,R-3,6.0000001,-5.160704223,-0.419505622,0,TRUE,5.675113859,0,FALSE,296.9517401,"{'voigt': 76079626.609, 'reuss': 6.463, 'vrh': 38039816.536}","{'voigt': 961402788.312, 'reuss': 11.496, 'vrh': 480701399.904}"
mp-28532,CrInBr3,20,Cr1 In1 Br3,15.155061,4.295885,9.532445971,83.86088559,90,90,mono,P2_1/c,16.0047702,-4.437823076,-0.973210912,0.049995816,FALSE,4.376033208,0,FALSE,617.0451078,,
mp-756147,CrInO3,20,Cr1 In1 O3,5.247183001,5.450137001,7.729873,89.99989555,90.00006982,89.9975895,ortho,Pnma,2.22E-05,-7.58026552,-2.129044674,0.051282904,FALSE,6.454494653,1.4521,FALSE,221.0578738,,
mp-1226313,CrMoO3,5,Cr1 Mo1 O3,3.970268245,3.970268245,3.970268472,80.63273246,80.63273246,80.63274194,trig,R3,5.9996983,-8.717012552,-1.648496433,0.444497286,FALSE,5.393333955,0,FALSE,60.32568395,,
mp-31703,CrOF3,20,Cr1 O1 F3,5.331868,5.331868,9.119184,90,90,90,tet,P4_1,4.000892,-6.308078556,-2.24098948,0.19245038,FALSE,3.202374106,2.1933,FALSE,259.2476074,,
mp-1101069,CrPSe3,10,Cr1 P1 Se3,6.346822765,6.346822765,7.011822922,81.34023461,81.34023461,119.9164314,mono,C2/m,5.8711051,-5.655635716,-0.54438463,0.041522399,FALSE,4.549599723,0,FALSE,233.4812834,,
mp-22364,CrPbO3,5,Cr1 Pb1 O3,3.917057,3.917057,3.917057,90,90,90,cubic,Pm-3m,2.0004248,-7.3799187,-1.738003189,0.156582256,FALSE,8.487554511,0,FALSE,60.10071989,,
mp-1183719,CrRhO3,5,Cr1 Rh1 O3,3.916935,3.916935,3.916935,90,90,90,cubic,Pm-3m,2.6781449,-7.131647658,-0.759399987,0.972423525,FALSE,5.606497366,0,FALSE,60.0951044,,
mp-9130,CrSbS3,20,Cr1 Sb1 S3,3.64237683,8.85576533,12.90915925,90,90,90,ortho,Pnma,11.9999999,-6.024536981,-0.785111498,0,TRUE,4.306111367,0,FALSE,416.3982855,,
mp-15236,CrSbSe3,20,Cr1 Sb1 Se3,3.82541442,9.32794413,13.52534271,90,90,90,ortho,Pnma,11.9978041,-5.540308449,-0.68635182,0,TRUE,5.651366987,0,FALSE,482.6282121,"{'voigt': 32.824, 'reuss': 29.902, 'vrh': 31.363}","{'voigt': 20.963, 'reuss': 18.032, 'vrh': 19.498}"
mp-3779,CrSiTe3,10,Cr1 Si1 Te3,8.259897013,8.25989776,8.259897444,48.84663891,48.84663822,48.84664312,trig,R-3,6.0000001,-5.340600708,-0.438944072,0,TRUE,5.242190017,0,FALSE,293.2488054,,
mp-1183695,CrTcO3,5,Cr1 Tc1 O3,3.892618,3.892618,3.892618,90,90,90,cubic,Pm-3m,4.8320309,-8.371840446,-1.40032656,0.630481439,FALSE,5.574121431,0,FALSE,58.98279652,,
mp-1226283,CrWO3,5,Cr1 W1 O3,4.84608559,4.84608559,4.846085245,86.69283229,86.69283229,86.69284859,trig,R3,3.9999609,-8.879733188,-1.388721045,0.726917571,FALSE,4.161361586,0.8863,FALSE,113.2605119,,
mp-505212,Cs3AuO,10,Cs3 Au1 O1,7.85221889,7.852218079,7.08932365,90,90,119.9999991,hex_,P6_3/mmc,0,-3.05530406,-0.871697987,0,TRUE,5.366422164,1.3261,FALSE,378.5473321,"{'voigt': 7.839, 'reuss': 7.727, 'vrh': 7.783}","{'voigt': 171951365621.348, 'reuss': 50.002, 'vrh': 85975682835.675}"
mp-1205638,Cs3BrO,10,Cs3 Br1 O1,7.841265711,7.841265711,7.12849225,90,90,119.9999987,hex_,P6_3/mmc,0,-3.409331851,-1.553112871,0,TRUE,4.327627694,1.5515,FALSE,379.5776742,,
mp-562420,Cs3ClO,20,Cs3 Cl1 O1,4.44156614,9.55407043,16.43001581,90,90,90,ortho,Pnma,0,-3.512819365,-1.61428236,0.001736147,FALSE,4.28866264,1.6128,FALSE,697.2083078,,
mp-1206444,Cs3IO,10,Cs3 I1 O1,8.115433731,8.115433731,7.2073345,90,90,120.0000019,hex_,P6_3/mmc,0,-3.290399019,-1.456766823,0,TRUE,4.375676369,1.5285,TRUE,411.082296,,
mp-1183923,CsAcO3,5,Cs1 Ac1 O3,4.870277,4.870277,4.870277,90,90,90,cubic,Pm-3m,1.9999826,-6.161423332,-2.188665903,0.220435035,FALSE,5.86334843,0,FALSE,115.5210129,,
mp-1399321,CsAgBr3,5,Cs1 Ag1 Br3,5.497825,5.494482,5.494832419,89.94623729,90,90,ortho,Amm2,0.0047664,-2.9694168,-1.238915519,0,TRUE,4.806817055,0,FALSE,165.9861789,,
mp-1946459,CsAgBr3,5,Cs1 Ag1 Br3,5.41674293,5.420254857,5.421173363,90.01879224,90,90,cubic,Pm-3m,0.2422433,-2.96691858,-1.236417299,0.00249822,FALSE,5.012776207,0,FALSE,159.1663308,,
mp-998344,CsAgBr3,5,Cs1 Ag1 Br3,5.494832832,5.497825358,5.494481653,89.97403467,89.94622685,89.94686603,mono,Pm,0.0008237,-2.969397006,-1.238895725,1.98E-05,FALSE,4.806819244,0,FALSE,165.9861034,,
mp-28610,CsAgCl3,10,Cs1 Ag1 Cl3,7.26308157,7.26308194,7.367583412,119.5239302,119.5239311,90.01406476,tet,I4/mmm,4.00E-07,-14.24546407,-1.262984392,0,TRUE,4.136571189,0,FALSE,278.6981311,"{'voigt': 14.175, 'reuss': 12.565, 'vrh': 13.37}","{'voigt': 6.9, 'reuss': 734.068, 'vrh': 370.484}"
mp-561920,CsAgF3,10,Cs1 Ag1 F3,6.253492187,6.25349198,6.253492716,91.29504521,119.255156,119.2551389,tet,I4/mcm,6.49E-05,-13.23150615,-2.066297088,0,TRUE,5.656703749,0,FALSE,174.8215389,,
mp-1189272,CsAlTe3,20,Cs1 Al1 Te3,14.12703173,7.28206706,8.296571453,76.08096223,90,90,mono,P2_1/c,0,-22.42296506,-0.806369902,0,TRUE,4.35108513,1.3209,FALSE,828.4397309,,
mp-1178465,CsAsO3,10,Cs1 As1 O3,5.041437671,5.041437671,9.994093,90,90,119.9999957,trig,P-31m,0.0001525,-5.872535957,-1.789989023,0.100516557,FALSE,3.862243599,2.192,FALSE,219.9798196,,
mp-1183911,CsAsO3,5,Cs1 As1 O3,4.075589,4.075589,4.075589,90,90,90,cubic,Pm-3m,0.0004725,-5.210400732,-1.127853798,0.762651782,FALSE,6.275110295,0,FALSE,67.69726826,,
mp-776093,CsAsO3,20,Cs1 As1 O3,5.33191898,6.05643105,11.77973995,90,90,90,ortho,Pbcm,0,-5.973052514,-1.890505581,0,TRUE,4.467005398,2.8702,FALSE,380.3960704,,
mp-1112987,CsAuBr3,5,Cs1 Au1 Br3,5.47254,5.47254,5.47254,90,90,90,cubic,Pm-3m,0.0003333,-2.98430326,-1.167613115,0.053059759,FALSE,5.770853651,0,FALSE,163.8954261,,
mp-569548,CsAuBr3,10,Cs1 Au1 Br3,7.810130999,7.810131921,7.958570721,119.384907,119.3849062,89.99999244,tet,I4/mmm,0,-3.037363019,-1.220672874,0,TRUE,5.41153036,0.653,FALSE,349.5560241,"{'voigt': 9.692, 'reuss': 9.475, 'vrh': 9.584}","{'voigt': 5.073, 'reuss': 3.799, 'vrh': 4.436}"
mp-23026,CsAuCl3,5,Cs1 Au1 Cl3,5.206833,5.206833,5.206833,90,90,90,cubic,Pm-3m,1.40E-06,-19.95370469,-1.125408411,0.070643344,FALSE,5.131504298,0,FALSE,141.1630216,,
mp-23484,CsAuCl3,10,Cs1 Au1 Cl3,7.46498905,7.464989609,7.615689598,119.3475383,119.347547,90.00000305,tet,I4/mmm,0,-20.02434803,-1.196051755,0,TRUE,4.735835795,0.5386,FALSE,305.9137536,"{'voigt': 10.171, 'reuss': 10.148, 'vrh': 10.16}","{'voigt': 5.396, 'reuss': 4.6, 'vrh': 4.998}"
mp-1112985,CsAuF3,5,Cs1 Au1 F3,4.567677,4.567677,4.567677,90,90,90,cubic,Pm-3m,0.0017711,-18.82767404,-1.816648375,0.104128091,FALSE,6.741008666,0,FALSE,95.2985201,,
mp-28453,CsAuI3,10,Cs1 Au1 I3,8.39381681,8.393815879,8.526452143,119.4867412,119.4867451,89.9999958,tet,I4/mmm,0,-2.696688998,-0.947759205,0,TRUE,5.471687383,0.7337,TRUE,431.2946942,,
mp-1185548,CsAuO3,5,Cs1 Au1 O3,4.289972,4.289972,4.289972,90,90,90,cubic,Pm-3m,1.4745638,-4.264953696,-0.461654869,0.448214524,FALSE,7.947460756,0,FALSE,78.95204307,,
mp-567913,CsAuSe3,10,Cs1 Au1 Se3,6.592005256,7.695256202,7.732700027,81.02189656,68.63364999,64.64449123,mono,C2/c,0,-24.30635254,-0.582583462,0,TRUE,5.70185069,1.0527,FALSE,330.1082133,,
mp-573358,CsBSe3,20,Cs1 B1 Se3,6.206779423,7.702960693,12.95795499,90,90,106.8241571,mono,P2_1/c,0,-4.469022845,-0.85585178,0,TRUE,4.262965177,1.7167,FALSE,593.0100301,,
mp-1096925,CsBaI3,20,Cs1 Ba1 I3,5.27736676,10.58078051,18.51071733,90,90,90,ortho,Pnma,0,-3.402267388,-1.924319006,0,TRUE,4.183075736,3.6259,TRUE,1033.613639,,
mp-1183934,CsBaO3,5,Cs1 Ba1 O3,5.030816,5.030816,5.030816,90,90,90,cubic,Pm-3m,3,-4.842209254,-1.309891839,0.48376279,FALSE,4.150264786,0,FALSE,127.3254737,,
mp-1017555,CsBeF3,5,Cs1 Be1 F3,4.035341,4.035341,4.035341,90,90,90,cubic,Pm-3m,0,-4.819322582,-2.744806804,0.662552306,FALSE,5.026563847,5.3671,FALSE,65.71139998,"{'voigt': 80.268, 'reuss': 80.268, 'vrh': 80.268}","{'voigt': 47.602, 'reuss': 4.148, 'vrh': 25.875}"
mp-12262,CsBeF3,20,Cs1 Be1 F3,4.84401504,6.00417243,12.51777016,90,90,90,ortho,Pnma,0,-5.481874888,-3.40735911,0,TRUE,3.628994437,6.6443,FALSE,364.0706021,,
mp-24341,CsBeH3,10,Cs1 Be1 H3,5.070669727,5.91286537,7.806349522,90,108.863848,90,mono,P2_1/m,0,-3.170810747,-0.206082487,0,TRUE,2.173383439,3.2298,FALSE,221.4804274,,
mp-983578,CsBiO3,5,Cs1 Bi1 O3,4.417567,4.417567,4.417567,90,90,90,cubic,Pm-3m,0.2760863,-5.290564856,-1.364035567,0.040554781,FALSE,7.50991693,0,FALSE,86.20837029,,
mp-28873,CsBrO3,5,Cs1 Br1 O3,4.639254737,4.639254476,4.639254038,88.72505696,88.72504892,88.72505622,trig,R3m,2.20E-06,-4.536734756,-1.060823022,0,TRUE,4.340530526,4.1681,TRUE,99.77612006,,
mp-30056,CsCaBr3,5,Cs1 Ca1 Br3,5.70866573,5.70866573,5.70866573,90,90,90,cubic,Pm-3m,0,-3.86891267,-2.305878949,0,TRUE,3.683620991,4.3923,FALSE,186.0389335,,
mp-1096927,CsCaCl3,5,Cs1 Ca1 Cl3,5.461912202,5.462038323,5.464458317,89.97426593,90.03123415,89.9763329,tet,P4mm,0,-12.65494129,-2.5359783,0.00029149,FALSE,2.845375636,5.3473,FALSE,163.0220799,,
mp-1097916,CsCaCl3,5,Cs1 Ca1 Cl3,5.420258544,5.417338051,5.416346016,90.00570167,89.97678313,90.0130572,cubic,Pm-3m,0,-12.65512105,-2.536158057,0.000111732,FALSE,2.916579015,5.3331,FALSE,159.0421696,,
mp-1206863,CsCaCl3,10,Cs1 Ca1 Cl3,7.667754568,7.667754568,7.667754568,120.3564945,120.3564945,89.38363448,tet,I4/mcm,0,-12.65523278,-2.536269789,0,TRUE,2.926173996,5.2834,FALSE,317.0413345,,
mp-7104,CsCaF3,5,Cs1 Ca1 F3,4.52053103,4.52053103,4.52053103,90,90,90,cubic,Pm-3m,0,-12.02079677,-3.719104391,0,TRUE,4.133979088,6.9005,FALSE,92.37795929,"{'voigt': 47.44, 'reuss': 47.44, 'vrh': 47.44}","{'voigt': 27.367, 'reuss': 26.317, 'vrh': 26.842}"
mp-644203,CsCaH3,5,Cs1 Ca1 H3,4.621186,4.621186,4.621186,90,90,90,cubic,Pm-3m,0,-8.997638738,-0.497071647,0.012165698,FALSE,2.961551996,3.1408,TRUE,98.68709087,,
mp-1213688,CsCaI3,20,Cs1 Ca1 I3,8.57588159,8.78260577,12.28814489,90,90,90,ortho,Pnma,0,-3.328126308,-1.832852939,0.01000114,FALSE,3.973677916,3.9817,FALSE,925.5257116,,
mp-998333,CsCaI3,5,Cs1 Ca1 I3,6.234632616,6.234632616,6.231499104,89.99261412,89.99261412,89.99760864,mono,Cm,0.0027961,-3.317324766,-1.822051397,0.020802681,FALSE,3.795831242,3.7149,FALSE,242.2223781,,
mp-998428,CsCaI3,20,Cs1 Ca1 I3,4.72814982,10.71713597,17.79891735,90,90,90,ortho,Pnma,0,-3.338127447,-1.842854078,0,TRUE,4.077721813,3.8335,TRUE,901.9107359,,
mp-984240,CsCaO3,5,Cs1 Ca1 O3,4.684888,4.684888,4.684888,90,90,90,cubic,Pm-3m,3,-5.034596532,-1.484954129,0.426448184,FALSE,3.568680557,0,FALSE,102.8247444,"{'voigt': 40.397, 'reuss': 40.397, 'vrh': 40.397}","{'voigt': 14.954, 'reuss': 6.7219999999999995, 'vrh': 10.838}"
mp-541899,CsCdBr3,10,Cs1 Cd1 Br3,7.75054773,7.750548518,6.75925007,90,90,120.0000011,hex_,P6_3/mmc,0,-2.941244357,-1.587328574,0,TRUE,4.580916049,2.901,TRUE,351.6365217,,
mp-570231,CsCdBr3,5,Cs1 Cd1 Br3,5.53006949,5.53006949,5.53006949,90,90,90,cubic,Pm-3m,2.00E-07,-2.90856913,-1.554653347,0.032675227,FALSE,4.762385495,0.6968,FALSE,169.1187523,,
mp-568544,CsCdCl3,5,Cs1 Cd1 Cl3,5.26440167,5.26440167,5.26440167,90,90,90,cubic,Pm-3m,0,-14.43538923,-1.703087444,0.002633956,FALSE,4.002617566,1.7462,FALSE,145.8972328,"{'voigt': 29.552, 'reuss': 29.552, 'vrh': 29.552}","{'voigt': 14.043, 'reuss': 13.758, 'vrh': 13.901}"
mp-619015,CsCdCl3,30,Cs1 Cd1 Cl3,7.466469158,7.466416524,18.57527651,90.0000612,89.99979472,119.9998571,hex_,P6_3/mmc,0,-14.43802319,-1.7057214,0,TRUE,3.907044594,2.4918,TRUE,896.796767,,
mp-8399,CsCdF3,5,Cs1 Cd1 F3,4.48681068,4.48681068,4.48681068,90,90,90,cubic,Pm-3m,0,-13.61419207,-2.699160898,0,TRUE,5.557644493,3.2859,FALSE,90.32609495,"{'voigt': 53.871, 'reuss': 53.871, 'vrh': 53.871}","{'voigt': 24.489, 'reuss': 23.597, 'vrh': 24.043}"
mp-1183925,CsCdO3,5,Cs1 Cd1 O3,4.541019,4.541019,4.541019,90,90,90,cubic,Pm-3m,3.0265081,-4.033011278,-0.692486813,0.434968282,FALSE,5.201431676,0,FALSE,93.6396878,,
mp-754202,CsClO3,10,Cs1 Cl1 O3,4.726173,6.573452,6.812806,90,90,90,ortho,Pmn2_1,0.0001129,-4.66767155,-1.149441791,0.071620678,FALSE,3.394847048,5.1356,FALSE,211.6552927,,
mp-760386,CsClO3,5,Cs1 Cl1 O3,4.790057835,4.790057835,4.790058042,85.84492341,85.84492341,85.84493363,trig,R3m,4.85E-05,-4.671130762,-1.152901003,0.068161466,FALSE,3.293642815,5.4658,TRUE,109.0794276,,
mp-779389,CsClO3,10,Cs1 Cl1 O3,6.150975,5.212698,7.843003736,69.89401204,90,90,mono,P2_1/m,3.77E-05,-4.674400533,-1.156170774,0.064891695,FALSE,3.0427609,5.5682,TRUE,236.1465029,,
mp-504708,CsCoCl3,10,Cs1 Co1 Cl3,7.256539238,7.256705054,5.987522457,90.00539652,89.99469254,120.0071627,hex_,P6_3/mmc,6.0000001,-12.87491989,-1.516769419,0,TRUE,3.627169502,0,FALSE,273.0331968,,
mp-556943,CsCoF3,15,Cs1 Co1 F3,8.251573328,8.275965296,8.275997537,43.90358649,43.98164898,43.98177423,trig,R-3m,9,-5.252632151,-2.499315602,0.10126451,FALSE,5.012833517,0,FALSE,247.2842984,,
mp-27179,CsCrBr3,10,Cs1 Cr1 Br3,7.759907602,7.759907602,6.492639,90,90,119.9999966,hex_,P6_3mc,7.9899598,-4.544500072,-1.451976833,0.066703009,FALSE,4.164932249,0,FALSE,338.5828863,,
mp-29616,CsCrCl3,10,Cs1 Cr1 Cl3,6.259593661,7.25528116,7.290849812,119.8385769,88.50767167,89.99987157,mono,C2/m,8.0000005,-13.44975245,-1.723779723,0,TRUE,3.369328061,0.1533,FALSE,287.0896014,,
mp-570326,CsCrCl3,10,Cs1 Cr1 Cl3,7.395088804,7.395088804,6.173242,90,90,120.0000072,hex_,P6_3/mmc,7.9997579,-13.36991701,-1.643944287,0.079835436,FALSE,3.308491868,0,FALSE,292.3685741,,
mp-610955,CsCrCl3,10,Cs1 Cr1 Cl3,7.383772755,7.383772755,6.190735,90,90,120.0000068,hex_,P6_3mc,8.0186257,-13.36959796,-1.643625237,0.080154486,FALSE,3.309263129,0,FALSE,292.3004343,,
mp-1172893,CsCrI3,20,Cs1 Cr1 I3,6.825858,11.019183,16.494567,90,90,90,ortho,Cmcm,15.9997765,-3.564709038,-0.539946151,0.553264324,FALSE,3.028185068,0,FALSE,1240.645099,,
mp-27259,CsCrI3,10,Cs1 Cr1 I3,8.258842019,8.258842019,6.919918,90,90,120.0000002,hex_,P6_3/mmc,8.0073228,-4.058775547,-1.03401266,0.059197816,FALSE,4.595471591,0,FALSE,408.7614176,,
mp-580597,CsCrI3,20,Cs1 Cr1 I3,7.044584,8.287951,14.112466,90,90,90,ortho,Pbcn,16.0044163,-4.061403786,-1.036640898,0.056569577,FALSE,4.559576876,0,FALSE,823.9586843,,
mp-27336,CsCuBr3,20,Cs1 Cu1 Br3,7.469930645,7.469930645,12.73041553,90,90,117.9697667,ortho,C222_1,0,-3.233106413,-1.251351334,0,TRUE,4.617702428,0.3736,FALSE,627.3825242,,
mp-23032,CsCuCl3,30,Cs1 Cu1 Cl3,7.283517815,7.282651012,18.18519688,89.99983664,89.99982198,119.9995444,hex_,P6_122,6.0000003,-12.21473726,-1.334073815,0,TRUE,3.61151889,0.5494,TRUE,835.3747005,,
mp-2456411,CsCuCl3,10,Cs1 Cu1 Cl3,7.446860574,7.272837264,6.479774826,89.07892484,91.92712137,120.7840915,mono,C2/c,2,-12.21199193,-1.331328479,0.002745336,FALSE,3.337446264,0.5123,FALSE,301.325352,"{'voigt': 3.4050000000000002, 'reuss': 7.5120000000000005, 'vrh': 5.458}","{'voigt': -1.995, 'reuss': 4.065, 'vrh': 1.035}"
mp-567366,CsCuCl3,10,Cs1 Cu1 Cl3,7.311310697,7.311310697,6.030537,90,90,120.0000063,hex_,P6_3mc,1.9982435,-12.18219293,-1.301529483,0.032544332,FALSE,3.60224199,0,FALSE,279.1753505,,
mp-675287,CsCuCl3,10,Cs1 Cu1 Cl3,7.308069764,7.308069764,6.012731,90,90,119.9999979,hex_,P6_3/mmc,0.0074039,-12.16551512,-1.284851673,0.049222142,FALSE,3.616114469,0,FALSE,278.1043518,"{'voigt': -4214754.022, 'reuss': 27.037, 'vrh': -2107363.493}","{'voigt': -102018456.958, 'reuss': 39.511, 'vrh': -51009208.723}"
mp-1079040,CsDyBr3,10,Cs1 Dy1 Br3,8.017402,8.017402,5.729822,90,90,90,tet,P4/mbm,0.8140836,-4.012957112,-1.927368261,0.095302017,FALSE,4.82524931,0,FALSE,368.305709,,
mp-644483,Ti3SnH,5,Ti3 Sn1 H1,4.16614803,4.16665784,4.16499926,90,90,90,cubic,Pm-3m,1.168275,-13.83689028,-0.433976838,0,TRUE,6.047748629,0,FALSE,72.29986126,"{'voigt': 123.281, 'reuss': 123.281, 'vrh': 123.281}","{'voigt': 53.054, 'reuss': -3.26, 'vrh': 24.897}"
mp-4563,Ti3TlC,5,Ti3 Tl1 C1,4.24420109,4.24421542,4.24420006,90,90,90,cubic,Pm-3m,0.0006109,-7.49669618,-0.439373448,0.017583368,FALSE,7.819092443,0,FALSE,76.45206469,"{'voigt': 148.372, 'reuss': 148.372, 'vrh': 148.372}","{'voigt': 84.52, 'reuss': 82.621, 'vrh': 83.571}"
mp-9964,Ti3TlN,5,Ti3 Tl1 N1,4.214039,4.214039,4.214039,90,90,90,cubic,Pm-3m,0.0003617,-21.06942464,-0.845159385,0.036445007,FALSE,8.032508961,0,FALSE,74.83343003,"{'voigt': 153.716, 'reuss': 153.716, 'vrh': 153.716}","{'voigt': 41.788, 'reuss': 40.151, 'vrh': 40.969}"
mp-1014257,Ti3ZnN,10,Ti3 Zn1 N1,5.538218553,5.538218553,8.29981295,90,90,147.8391702,ortho,Cmcm,1.00E-07,-7.628054908,-0.971155427,0,TRUE,5.465796293,0,FALSE,135.5074075,"{'voigt': 147.03, 'reuss': 144.431, 'vrh': 145.73}","{'voigt': 95.51, 'reuss': 93.71, 'vrh': 94.61}"
mp-1217033,TiAl3Ge,10,Ti1 Al3 Ge1,4.005305,4.005305,10.591062,90,90,90,tet,P4mm,0.0013546,-4.897630984,-0.146581512,0.172040723,FALSE,3.937668508,0,FALSE,169.9067747,,
mp-1248327,TiAlO3,30,Ti1 Al1 O3,5.497894588,5.49449102,12.001781,89.99892428,89.99927647,119.871933,ortho,Cmcm,0.3100538,-8.424581772,-3.127591599,0.237403722,FALSE,3.893182534,0,FALSE,314.3831149,,
mp-1341716,TiAlO3,30,Ti1 Al1 O3,5.488500495,5.488500495,12.039816,90,90,120.000006,hex_,P6_3cm,1.39861,-8.400689787,-3.103699614,0.261295707,FALSE,3.896781979,0,FALSE,314.0927202,,