mp_id,composition,a_edge (angstrom),b_edge (angstrom),c_edge (angstrom),alpha_ang (deg),beta_ang (deg),gamma_ang (deg),crystal_system,space_group,formation_energy (eV/atom),energy_above_hull (eV/atom),band_gap (eV),A_site,B_site,X_site
mp-1078217,Na1 Fe1 F3,5.300297342,5.300297342,7.3093313,90.0,90.0,145.9062102,ortho,Cmcm,-2.739065477,0.0,2.2462,Na,Fe,F
mp-505066,Na1 Fe1 F3,5.40024129,5.67492859,7.75734924,90.0,90.0,90.0,ortho,Pnma,-2.738650639,0.000414838,1.8013,Na,Fe,F
mp-1186134,Na1 Fe1 O3,3.830481,3.830481,3.830481,90.0,90.0,90.0,cubic,Pm-3m,-1.292712711,0.145586835,0.0,Na,Fe,O
mp-754915,Na1 Fe1 O3,5.081973297,5.081823001,6.026080112,65.06173316,89.99959398,59.99876032,trig,R-3,-1.383083283,0.055216263,0.0,Na,Fe,O
mp-13674,Na1 Ge1 Au3,9.08579863,9.08579863,9.08579863,90.0,90.0,90.0,cubic,Pa-3,-0.266376418,0.0,0.0512,Na,Ge,Au
mp-1186133,Na1 Ge1 O3,3.764763,3.764763,3.764763,90.0,90.0,90.0,cubic,Pm-3m,-1.694647066,0.234104382,0.0,Na,Ge,O
mp-608490,Na1 Hg1 Cl3,4.197563,7.490832,18.240625,90.0,90.0,90.0,ortho,Pnma,-1.170227545,0.055224329,2.5331,Na,Hg,Cl
mp-22989,Na1 I1 O3,5.71285073,6.37266126,8.00742924,90.0,90.0,90.0,ortho,Pnma,-1.318583879,0.0,3.6962,Na,I,O
mp-545825,Na1 I1 O3,4.535083844,4.535083844,5.992743,90.0,90.0,128.2781516,ortho,Cmmm,-0.287930588,1.030653291,0.0,Na,I,O
mp-559252,Na1 I1 O3,5.566224,7.421278,8.59996,90.0,90.0,90.0,ortho,Pna2_1,-1.185296827,0.133287052,3.3956,Na,I,O
mp-1186138,Na1 In1 O3,4.238881,4.238881,4.238881,90.0,90.0,90.0,cubic,Pm-3m,-1.174024877,0.409093491,0.0,Na,In,O
mp-1079568,Na1 Ir1 O3,5.300271506,5.300271506,7.161737932,89.99755849,90.00244151,146.2510454,ortho,Cmcm,-1.471872186,0.0,0.0,Na,Ir,O
mp-975990,Na1 Li1 O3,3.837825,3.837825,3.837825,90.0,90.0,90.0,cubic,Pm-3m,-0.734994288,0.469173151,0.0,Na,Li,O
mp-12948,Na1 Mg1 F3,2.9723323,5.169685079,7.29113575,90.0,90.0,106.70698,ortho,Cmcm,-3.47704665,0.031401028,6.6207,Na,Mg,F
mp-2955,Na1 Mg1 F3,5.29698319,5.47126659,7.59868745,90.0,90.0,90.0,ortho,Pnma,-3.508447677,0.0,6.7529,Na,Mg,F
mp-560399,Na1 Mg1 F3,3.950839,3.950839,3.950839,90.0,90.0,90.0,cubic,Pm-3m,-3.466799875,0.041647802,5.9262,Na,Mg,F
mp-23730,Na1 Mg1 H3,5.31825568,5.42821054,7.61022894,90.0,90.0,90.0,ortho,Pnma,-0.297041662,0.0,3.103,Na,Mg,H
mp-976775,Na1 Mg1 O3,4.017664,4.017664,4.017664,90.0,90.0,90.0,cubic,Pm-3m,-1.386468496,0.372954516,0.0,Na,Mg,O
mp-27176,Na1 Mn1 Cl3,7.24814101,7.248141219,7.248140997,53.94276245,53.94276057,53.94276353,trig,R-3,-1.764314634,0.004151162,0.2729,Na,Mn,Cl
mp-560242,Na1 Mn1 F3,5.48554473,5.72833986,7.94483284,90.0,90.0,90.0,ortho,Pnma,-2.965489393,0.0,2.7474,Na,Mn,F
mp-1040471,Na1 Mo1 O3,3.948882,3.948882,3.948882,90.0,90.0,90.0,cubic,Pm-3m,-2.014921025,0.096339849,0.0,Na,Mo,O
mp-998627,Na1 Mo1 O3,5.540828952,5.540828952,5.540828988,59.82848922,59.82848922,59.82847977,trig,R3c,-2.023017042,0.088243832,0.0,Na,Mo,O
mp-1173585,Na1 N1 O3,5.184663,6.490415882,8.932245574,102.8579834,90.69997273,112.6384976,tri,P1,-1.350257228,0.012939741,2.7742,Na,N,O
mp-1220986,Na1 N1 O3,4.066763369,4.066763369,4.066764011,75.98976215,75.98976215,75.98975768,trig,R32,-1.344924531,0.018272438,2.8579,Na,N,O
mp-4531,Na1 N1 O3,6.168633246,6.168633278,6.168632823,48.31173923,48.31173643,48.31173891,trig,R-3c,-1.363196969,0.0,2.9451,Na,N,O
mp-674297,Na1 N1 O3,5.129242,6.47355893,17.70518524,82.52805993,81.80349083,66.8892943,tri,P1,-1.353750147,0.009446822,2.5714,Na,N,O
mp-1078295,Na1 Nb1 O3,5.380428943,5.38042873,6.025465474,63.482311,63.48231063,59.99998666,trig,R-3,-2.841680835,0.00314193,3.8374,Na,Nb,O
mp-1105765,Na1 Nb1 O3,5.562819,5.611539,7.90948,90.0,90.0,90.0,ortho,Pnma,-2.819604603,0.025218162,1.865,Na,Nb,O
mp-1188528,Na1 Nb1 O3,5.46380577,5.55560515,7.91780312,90.0,90.0,90.0,ortho,Pna2_1,-2.841942181,0.002880584,2.3501,Na,Nb,O
mp-1189194,Na1 Nb1 O3,5.626237,5.679295,7.888613,90.0,90.0,90.0,ortho,Pnma,-2.815279955,0.02954281,1.6607,Na,Nb,O
mp-1190015,Na1 Nb1 O3,5.52130513,5.58318855,7.80092354,90.0,90.0,90.0,ortho,Pmn2_1,-2.841177875,0.00364489,2.2326,Na,Nb,O
mp-1194823,Na1 Nb1 O3,5.63061416,5.64571163,47.84336804,90.0,90.0,90.0,ortho,Pnma,-2.819788799,0.025033966,1.7196,Na,Nb,O
mp-1195803,Na1 Nb1 O3,5.613677,5.653924,23.805242,90.0,90.0,90.0,ortho,Pnma,-2.819468331,0.025354435,1.6548,Na,Nb,O
mp-1198142,Na1 Nb1 O3,7.94730459,7.93582613,23.77232728,90.0,90.0,90.0,ortho,Pmmn,-2.816460865,0.0283619,1.7321,Na,Nb,O
mp-1199037,Na1 Nb1 O3,5.691951,5.703243,15.991218,90.0,90.0,90.0,ortho,P222_1,-2.802342079,0.042480687,1.7575,Na,Nb,O
mp-1199593,Na1 Nb1 O3,7.90732,7.952663,15.940201,90.0,90.0,90.0,ortho,Pmmn,-2.812119088,0.032703677,1.6316,Na,Nb,O
mp-1203293,Na1 Nb1 O3,7.92643002,7.96962381,23.703308,90.0,90.0,90.0,ortho,Pnma,-2.820251997,0.024570768,1.8049,Na,Nb,O
mp-1977728,Na1 Nb1 O3,5.61558468,5.61558468,5.61558468,89.23746549,60.12555079,119.2479848,ortho,Imma,-2.815414552,0.029408213,1.6644,Na,Nb,O
mp-3136,Na1 Nb1 O3,4.009335,4.009335,4.009335,90.0,90.0,90.0,cubic,Pm-3m,-2.800483741,0.044339024,1.5249,Na,Nb,O
mp-3671,Na1 Nb1 O3,5.5248728,5.6112517,15.54671286,90.0,90.0,90.0,ortho,Pbcm,-2.843081658,0.001741107,2.3565,Na,Nb,O
mp-4419,Na1 Nb1 O3,5.573516,5.573516,4.01795,90.0,90.0,90.0,tet,P4/mbm,-2.81396374,0.030859025,1.5604,Na,Nb,O
mp-4514,Na1 Nb1 O3,5.617198572,5.617198085,5.617198165,58.72980802,58.72981109,58.72980534,trig,R3c,-2.844822765,0.0,2.5048,Na,Nb,O
mp-4681,Na1 Nb1 O3,5.53000775,5.60546511,7.79067262,90.0,90.0,90.0,ortho,Pmc2_1,-2.84241499,0.002407775,2.3684,Na,Nb,O
mp-4748,Na1 Nb1 O3,5.581053515,5.581053515,7.944256,90.0,90.0,90.60105371,ortho,Cmcm,-2.818122026,0.026700739,1.681,Na,Nb,O
mp-558920,Na1 Nb1 O3,5.50155075,5.59235205,15.6835549,90.0,90.0,90.0,ortho,Pca2_1,-2.843007566,0.001815199,2.4098,Na,Nb,O
mp-559354,Na1 Nb1 O3,4.040949341,4.040949341,15.956757,90.0,90.0,90.47144013,ortho,Cmcm,-2.80565504,0.039167725,2.0583,Na,Nb,O
mp-1078237,Na1 Ni1 F3,2.99466387,5.175339021,7.31394038,90.0,90.0,106.8172885,ortho,Cmcm,-2.553717915,0.005519015,5.1242,Na,Ni,F
mp-561480,Na1 Ni1 F3,5.295510731,5.52379538,7.609582551,90.00064139,90.00141003,90.00101808,ortho,Pnma,-2.55923693,0.0,0.0,Na,Ni,F
mp-1186154,Na1 Ni1 O3,3.821156,3.821156,3.821156,90.0,90.0,90.0,cubic,Pm-3m,-0.745677687,0.320827804,0.0,Na,Ni,O
mp-1040464,Na1 Os1 O3,3.876674,3.876674,3.876674,90.0,90.0,90.0,cubic,Pm-3m,-1.615496229,0.035054636,0.0,Na,Os,O
mp-1105218,Na1 Os1 O3,5.400181319,7.563733216,5.301335821,89.99944685,90.00159102,89.99043966,ortho,Pnma,-1.650550866,0.0,0.0,Na,Os,O
mp-998624,Na1 Os1 O3,5.36963185,5.36963185,5.3696314,60.18851187,60.18851187,60.18850953,trig,R-3c,-1.641063807,0.009487059,0.0,Na,Os,O
mp-35683,Na1 P1 F3,5.191036,5.193018993,5.339904183,95.77567692,115.570087,116.6093851,tri,P1,-2.124063644,0.448690176,0.9889,Na,P,F
mp-4734,Na1 P1 O3,6.14007416,6.915117821,13.67600088,61.59664818,90.0,90.0,mono,P2_1/c,-2.633496923,0.012073411,5.2087,Na,P,O
mp-555118,Na1 P1 O3,7.61998559,7.88601616,13.12362076,90.0,90.0,90.0,ortho,Pnma,-2.6367092,0.008861134,5.081,Na,P,O
mp-558192,Na1 P1 O3,5.95087608,7.597080671,13.07320692,58.77843958,90.0,90.0,mono,P2_1/c,-2.637670223,0.00790011,5.158,Na,P,O
mp-648053,Na1 P1 O3,9.962815628,9.962815628,9.962815628,95.79540824,95.79540824,142.9439947,tet,I4_1/a,-2.606430062,0.039140272,4.8428,Na,P,O
mp-648072,Na1 P1 O3,9.693069829,9.693069829,9.693069829,98.57500686,98.57500686,134.5709504,tet,I4_1/a,-2.586449467,0.059120867,4.8406,Na,P,O
mp-864891,Na1 P1 O3,6.987333398,7.036162374,7.790898551,93.44658579,103.1214267,90.03707023,tri,P-1,-2.645570334,0.0,5.1185,Na,P,O
mp-1189520,Na1 P1 S3,7.890501,6.739701,9.132623926,89.78065042,90.0,90.0,mono,P2_1/m,-0.865360789,0.0,1.988,Na,P,S
mp-865120,Na1 Pa1 O3,4.32748724,4.32748724,4.32748724,90.0,90.0,90.0,cubic,Pm-3m,-3.440691451,0.0,2.952,Na,Pa,O
mp-1186153,Na1 Pb1 O3,4.303905,4.303905,4.303905,90.0,90.0,90.0,cubic,Pm-3m,-1.088504399,0.308695352,0.0,Na,Pb,O
mp-1220961,Na1 Pd1 F3,6.636765469,6.750886613,7.312087396,63.56047824,106.5139563,88.67038306,tri,P-1,-2.044560438,0.002678904,0.2924,Na,Pd,F
mp-1377793,Na1 Pd1 F3,6.798007,6.902887007,7.518175321,117.1107111,105.718457,90.76978957,tri,P-1,-0.668669545,1.378569798,0.0,Na,Pd,F
mp-976968,Na1 Pd1 O3,3.991149,3.991149,3.991149,90.0,90.0,90.0,cubic,Pm-3m,-0.768164637,0.264553472,0.0,Na,Pd,O
mp-976952,Na1 Pu1 O3,4.20646926,4.2064804,4.20650717,90.0,90.0,90.0,cubic,Pm-3m,-2.828455169,0.0,0.0,Na,Pu,O
mp-976923,Na1 Re1 O3,3.887614,3.887614,3.887614,90.0,90.0,90.0,cubic,Pm-3m,-2.072553318,0.041938696,0.0,Na,Re,O
mp-977107,Na1 Ru1 O3,3.867457,3.867457,3.867457,90.0,90.0,90.0,cubic,Pm-3m,-1.518621671,0.089076717,0.0,Na,Ru,O
mp-20011,Na1 Sb1 O3,7.34393749,7.34393749,7.34393749,60.0,60.0,60.0,cubic,Fd-3m,-2.00169528,0.055137247,1.4696,Na,Sb,O
mp-22212,Na1 Sb1 O3,5.476474,5.535948,7.796969,90.0,90.0,90.0,ortho,Pnma,-1.964936912,0.091895615,1.274,Na,Sb,O
mp-4482,Na1 Sb1 O3,6.105268138,6.105268122,6.105267801,51.53023186,51.53023643,51.5302247,trig,R-3,-2.056832527,0.0,2.7012,Na,Sb,O
mp-752755,Na1 Sb1 O3,5.34812049,5.40063208,8.49555347,90.0,90.0,90.0,ortho,Pnna,-2.019996429,0.036836098,1.438,Na,Sb,O
mp-760994,Na1 Sb1 O3,8.105306,8.164463042,8.247577545,109.3992525,109.319359,108.4515573,tri,P-1,-1.991177241,0.065655287,2.2389,Na,Sb,O
mp-1197679,Na1 Se1 O3,11.7122713,11.7122713,10.48761755,78.60325856,78.60325856,29.19252132,mono,C2/c,-1.377253598,0.194034118,0.333,Na,Se,O
mp-728664,Na1 Se1 O3,11.80637855,11.80637855,10.87838634,89.19880081,89.19880081,31.88170065,mono,C2/c,-1.497195065,0.074092651,3.0973,Na,Se,O
mp-13673,Na1 Si1 Au3,8.96901855,8.96901855,8.96901855,90.0,90.0,90.0,cubic,Pa-3,-0.304091856,0.0,0.0,Na,Si,Au
mp-1186167,Na1 Si1 O3,3.561251,3.561251,3.561251,90.0,90.0,90.0,cubic,Pm-3m,-2.354524145,0.258056145,0.0,Na,Si,O
mp-977112,Na1 Sr1 O3,4.20833,4.20833,4.20833,90.0,90.0,90.0,cubic,Pm-3m,-1.303110013,0.538816025,0.0,Na,Sr,O
mp-3858,Na1 Ta1 O3,5.45388623,5.51999928,7.77470694,90.0,90.0,90.0,ortho,Pnma,-3.062992296,0.0,2.6172,Na,Ta,O
mp-4170,Na1 Ta1 O3,3.947854064,3.94785413,3.947865,90.0,90.0,90.004412,cubic,Pm-3m,-3.035238167,0.027754129,2.2603,Na,Ta,O
mp-4675,Na1 Ta1 O3,3.95914,5.477129,5.477129,90.0,90.0,90.0,tet,P4/mbm,-3.053653403,0.009338894,2.2798,Na,Ta,O
mp-4699,Na1 Ta1 O3,5.491890318,5.491889829,7.82031063,90.0,90.0,90.6064677,ortho,Cmcm,-3.059662738,0.003329558,2.3891,Na,Ta,O
mp-676280,Na1 Ta1 O3,7.571481762,7.444135581,14.78526202,59.02675537,60.28675963,59.44014064,tri,P1,-2.967343368,0.095648928,3.4067,Na,Ta,O
mp-730333,Na1 Ta1 O3,7.42763,7.437282853,12.67246936,105.8311692,90.69964474,118.7701725,tri,P1,0.124685543,3.18767784,0.0,Na,Ta,O
mp-754818,Na1 Ta1 O3,7.422917075,7.422917075,7.422917075,60.0,60.0,60.0,cubic,Fd-3m,-2.97623449,0.086757807,2.7139,Na,Ta,O
mp-977176,Na1 Tc1 O3,3.81537391,3.81537391,3.81537391,90.0,90.0,90.0,cubic,Pm-3m,-1.97206504,0.0,0.0,Na,Tc,O
mp-977117,Na1 Te1 O3,4.066369,4.066369,4.066369,90.0,90.0,90.0,cubic,Pm-3m,-1.583567151,0.132665316,0.0,Na,Te,O
mp-1120777,Na1 Ti1 F3,4.158119,4.158119,4.158119,90.0,90.0,90.0,cubic,Pm-3m,-2.921142528,0.235029019,0.0,Na,Ti,F
mp-977123,Na1 Ti1 O3,3.902333,3.902333,3.902333,90.0,90.0,90.0,cubic,Pm-3m,-2.63980875,0.089884528,0.0,Na,Ti,O
mp-5788,Na1 U1 O3,5.74520583,5.90574039,8.26116171,90.0,90.0,90.0,ortho,Pnma,-3.287362496,0.0,0.431,Na,U,O
mp-1120756,Na1 V1 F3,5.42093668,5.67689025,7.79968438,90.0,90.0,90.0,ortho,Pnma,-3.019422332,0.0,2.0207,Na,V,F
mp-20572,Na1 V1 F3,4.167837,4.167837,4.167837,90.0,90.0,90.0,cubic,Pm-3m,-2.928072425,0.091349908,0.6978,Na,V,F
mp-1099591,Na1 V1 O3,3.773809,3.773809,3.773809,90.0,90.0,90.0,cubic,Pm-3m,-2.233827591,0.141920087,0.2168,Na,V,O
mp-1101657,Na1 V1 O3,7.823921574,7.823921574,6.238242268,66.34111706,113.6588829,106.9159798,mono,C2/c,-2.332874733,0.042872946,3.2243,Na,V,O
mp-19083,Na1 V1 O3,5.891257971,7.093378656,7.093378971,82.96980115,75.21124827,75.211234,mono,C2/c,-2.375747678,0.0,3.2386,Na,V,O
mp-555665,Na1 V1 O3,3.59463913,5.34175319,14.30031451,90.0,90.0,90.0,ortho,Pnma,-2.369992201,0.005755478,3.0358,Na,V,O
mp-763901,Na1 V1 O3,7.81697393,7.81697393,7.81697393,133.042758,106.8543373,91.57677775,ortho,Ibam,-2.332734236,0.043013442,3.2017,Na,V,O
mp-19328,Na1 W1 O3,3.969588,3.969588,3.969588,90.0,90.0,90.0,cubic,Pm-3m,-2.106962365,0.055300456,0.0,Na,W,O
mp-3795,Na1 Zn1 F3,5.35051557,5.5832596,7.70171572,90.0,90.0,90.0,ortho,Pnma,-2.75643615,0.0,3.7676,Na,Zn,F
mp-1180211,Na1 Zn1 O3,12.781385,12.781385,3.59029,90.0,90.0,90.0,tet,P4_2/mbc,-0.915008156,0.345450834,0.0,Na,Zn,O
mp-1186198,Na1 Zn1 O3,3.907165,3.907165,3.907165,90.0,90.0,90.0,cubic,Pm-3m,-0.848936643,0.411522346,0.0,Na,Zn,O
mp-1220590,Nb3 Sn1 H1,5.391959608,5.391959608,5.37328962,90.0,90.0,90.23250266,ortho,Ama2,-0.279058048,0.0,0.0,Sn,H,Nb
mp-1220523,Nb3 Zn1 Au1,7.024363,7.024363,7.024363,90.0,90.0,90.0,cubic,P2_13,-0.0793053,0.045375436,0.0,Zn,Au,Nb
mp-1203481,Nb1 Ag1 O3,5.662245,5.767348,15.765765,90.0,90.0,90.0,ortho,Pmc2_1,-2.179120357,0.039513493,1.7362,Nb,Ag,O
mp-1205362,Nb1 Ag1 O3,5.633597688,5.633597688,8.01232,90.0,90.0,90.40294273,ortho,Cmcm,-2.167828127,0.050805722,0.9892,Nb,Ag,O
mp-1220387,Nb1 Ag1 O3,5.632712,5.632712,4.031777,90.0,90.0,90.0,tet,P4/mbm,-2.165201552,0.053432297,1.0243,Nb,Ag,O
mp-12725,Nb1 Ag1 O3,4.023986,4.023986,4.023986,90.0,90.0,90.0,cubic,Pm-3m,-2.147779927,0.070853922,1.3336,Nb,Ag,O
mp-2349989,Nb1 Ag1 O3,6.849989524,6.849989524,3.11296407,90.0,90.0,110.2638352,ortho,Pmmm,-2.151860956,0.066772893,0.9228,Nb,Ag,O
mp-5537,Nb1 Ag1 O3,5.670564,5.747751,15.762602,90.0,90.0,90.0,ortho,Pbcm,-2.180191697,0.038442153,1.4737,Nb,Ag,O
mp-557680,Nb1 Ag1 O3,6.84232473,6.84232473,3.115601,90.0,90.0,110.1778604,ortho,Cmmm,-2.147974619,0.07065923,0.8149,Nb,Ag,O
mp-1206988,Nb1 B1 Rh3,4.112569,4.112569,4.112569,90.0,90.0,90.0,cubic,Pm-3m,-0.269517326,0.230620633,0.0,Nb,B,Rh
mp-1186216,Nb1 Bi1 O3,4.109713,4.109713,4.109713,90.0,90.0,90.0,cubic,Pm-3m,-1.999815811,0.42639619,0.0,Nb,Bi,O
mp-1220556,Nb1 Br3 O1,3.938516395,11.93692868,11.94580251,90.0,90.53614677,90.0,mono,P2_1/c,-1.819481736,0.0,1.9457,Nb,O,Br
mp-606393,Nb1 Br3 O1,11.87544428,11.87544428,3.93837323,90.0,90.0,90.0,tet,P-42_1m,-1.819446558,3.52e-05,1.9659,Nb,O,Br
mp-27815,Nb1 Cl3 O1,11.23242321,11.23242321,3.83830787,90.0,90.0,90.0,tet,P4_2/mnm,-2.123582573,0.006079837,2.4018,Nb,O,Cl
mp-556422,Nb1 Cl3 O1,11.22192364,11.22192364,3.9294847,90.0,90.0,90.0,tet,P-42_1m,-2.12966241,0.0,2.8075,Nb,O,Cl
mp-1079356,Nb1 Cr1 N3,3.441502,3.441502,9.560803,90.0,90.0,90.0,tet,P4/nmm,-0.396024555,0.422078142,0.0,Nb,Cr,N
mp-17272,Nb1 Cu1 O3,6.450586584,6.450586584,6.754066241,90.78338025,90.78338025,83.51991815,mono,C2/m,-2.299577138,0.017718185,0.959,Nb,Cu,O
mp-1186220,Nb1 Fe1 O3,4.003642,4.003642,4.003642,90.0,90.0,90.0,cubic,Pm-3m,-1.910904075,0.555858302,0.0,Nb,Fe,O
mp-1372548,Nb1 H1 O3,6.756104,6.767694682,6.790883477,109.8503522,108.8253782,109.3055751,tri,P1,1.450506485,3.958451076,0.0,Nb,H,O
mp-33932,Nb1 H1 O3,6.703689,6.724743431,6.741557331,109.2320898,109.293438,109.2158179,tri,P1,-2.474307037,0.033637554,2.6221,Nb,H,O
mp-626528,Nb1 H1 O3,6.756104,6.790882678,6.767694233,109.8503525,109.3055764,108.8253805,tri,P1,-2.462863847,0.045080743,2.531,Nb,H,O
mp-626536,Nb1 H1 O3,6.801603318,6.745081324,6.77872703,109.8068892,108.583076,109.9873042,tri,P1,-2.429210428,0.078734162,0.0005,Nb,H,O
mp-673347,Nb1 H1 O3,6.745082,6.778727337,6.780367563,110.0593226,108.2488191,109.8068904,tri,P1,2.357306119,4.86525071,0.0,Nb,H,O
mp-546285,Nb1 I3 O1,3.988999982,7.839230075,11.34018199,82.94292991,79.98795858,75.32581327,mono,C2,-1.405361577,0.0,0.8196,Nb,O,I
mp-1247545,Nb1 Mo1 N3,8.492479694,5.39935322,5.845180914,97.99243824,111.7387351,102.0242848,tri,P-1,-0.563406812,0.189774252,0.0,Nb,Mo,N
mp-1220398,Nb1 Mo1 S3,3.28209,6.269142,8.800144414,75.81521402,90.0,90.0,mono,P2_1/m,-1.182139923,0.065792502,0.0,Nb,Mo,S
mp-1220396,Nb1 Mo1 Se3,3.400239,6.652061,9.221557923,74.79624438,90.0,90.0,mono,P2_1/m,-0.75513818,0.08549858,0.0,Nb,Mo,Se
mp-1094112,Nb1 O1 F3,5.295129808,5.295129808,5.295129275,71.53531149,71.53531149,71.5353137,trig,R3c,-3.087043181,0.20720327,4.2198,Nb,O,F
mp-1101450,Nb1 O1 F3,5.205345133,5.205345133,5.205345133,136.1193696,133.2848487,66.02039947,ortho,Immm,-3.205848474,0.088397977,2.0803,Nb,O,F
mp-753785,Nb1 O1 F3,9.357491,9.357491,3.860055,90.0,90.0,90.0,tet,P4_2/mnm,-3.260546452,0.033699999,3.2629,Nb,O,F
mp-753800,Nb1 O1 F3,6.697762,7.812108988,8.753174255,98.79964476,111.0872046,108.5893764,tri,P-1,-3.282875754,0.011370697,3.6991,Nb,O,F
mp-760762,Nb1 O1 F3,4.9777128,5.76975269,9.32762494,90.0,90.0,90.0,ortho,P2_12_12_1,-3.294246451,0.0,3.7013,Nb,O,F
mp-762371,Nb1 O1 F3,5.668481,5.668481,9.781582,90.0,90.0,90.0,tet,P4_1,-3.207275237,0.086971215,3.9131,Nb,O,F
mp-22351,Nb1 Ru3 C1,4.065138,4.065138,4.065138,90.0,90.0,90.0,cubic,Pm-3m,-0.029520131,0.170165435,0.0,Nb,C,Ru
mp-23498,Nb1 Se1 Br3,7.13577591,6.855151669,12.70778369,81.61717836,90.0,90.0,mono,P2/c,-1.261325605,0.0,0.7364,Nb,Se,Br
mp-570270,Nb1 Se1 Cl3,6.96285885,6.46676582,12.09106376,81.15765156,90.0,90.0,mono,P2/c,-1.245848913,0.0,0.7559,Nb,Se,Cl
mp-541817,Nb1 Se1 I3,8.160350513,8.160350513,13.83196066,85.96045847,85.96045847,126.7884238,mono,C2/c,-0.852683505,0.0,0.627,Nb,Se,I
mp-28038,Nb1 Te1 Br3,7.40403755,6.865694437,12.76672338,82.25461189,90.0,90.0,mono,P2/c,-1.175170097,0.0,0.5947,Nb,Te,Br
mp-540924,Nb1 Te1 I3,7.68762163,7.368421462,13.67789704,81.66890642,90.0,90.0,mono,P2/c,-0.770301787,0.0,0.4578,Nb,Te,I
mp-1101462,Nb1 Tl1 O3,7.606485877,7.606485877,13.15888899,73.18668832,73.18668832,60.08407658,mono,Cc,-2.451774462,0.001371141,0.9465,Nb,Tl,O
mp-757636,Nb1 Tl1 O3,7.611005621,7.624695152,13.18232079,72.97677338,72.6049216,59.96265257,tri,P1,-2.453145603,0.0,0.955,Nb,Tl,O
mp-977408,Nb1 Tl1 O3,4.108551,4.108551,4.108551,90.0,90.0,90.0,cubic,Pm-3m,-2.362471506,0.090674097,0.1116,Nb,Tl,O
mp-1247532,Nb1 W1 N3,3.883672464,5.51368725,6.872204799,90.76915642,90.03014633,110.5723445,mono,C2/m,-0.693836002,0.103244425,0.0,Nb,W,N
mp-571330,Nd3 Al1 C1,5.100122,5.100122,5.100122,90.0,90.0,90.0,cubic,Pm-3m,-0.186128464,0.026321534,0.0,Al,C,Nd
mp-21910,Nd3 Al1 N1,5.540037,5.540037,5.540037,90.0,90.0,90.0,cubic,Pm-3m,1.012615539,1.8483892,0.0,Al,N,Nd
mp-10280,Nd3 Ga1 C1,5.502933,5.502933,5.502933,90.0,90.0,90.0,cubic,Pm-3m,1.212166315,1.506786414,0.0,Ga,C,Nd
mp-636273,Nd3 Ga1 N1,5.505059,5.505059,5.505059,90.0,90.0,90.0,cubic,Pm-3m,0.79346201,1.733940115,0.0,Ga,N,Nd
mp-20385,Nd3 In1 C1,5.13119013,5.13119536,5.13119536,90.0,90.0,90.0,cubic,Pm-3m,-0.315989885,0.0,0.0,In,C,Nd
mp-606671,Nd3 In1 C1,6.150728,6.150728,6.150728,90.0,90.0,90.0,cubic,Pm-3m,1.686086549,2.002076434,0.0,In,C,Nd
mp-21022,Nd3 In1 N1,5.02826716,5.02826405,5.02826405,90.0,90.0,90.0,cubic,Pm-3m,-1.046397588,0.0,0.0,In,N,Nd
mp-623448,Nd3 In1 N1,6.111999,6.111999,6.111999,90.0,90.0,90.0,cubic,Pm-3m,1.188184364,2.234581952,0.0,In,N,Nd
mp-20808,Nd3 Pb1 C1,5.88866,5.88866,5.88866,90.0,90.0,90.0,cubic,Pm-3m,1.566906596,1.909572291,0.0,Pb,C,Nd
mp-1094101,Nd3 Pb1 N1,5.02007322,5.02007322,5.02007322,90.0,90.0,90.0,cubic,Pm-3m,-1.063248388,0.0,0.0,Pb,N,Nd
mp-19778,Nd3 Pb1 N1,5.898391,5.898391,5.898391,90.0,90.0,90.0,cubic,Pm-3m,1.144224818,2.207473206,0.0,Pb,N,Nd
mp-20423,Nd3 Sn1 C1,5.819249,5.819249,5.819249,90.0,90.0,90.0,cubic,Pm-3m,1.417727005,1.840612416,0.0,Sn,C,Nd
mp-1094085,Nd3 Sn1 N1,5.00002241,5.00002241,5.00002241,90.0,90.0,90.0,cubic,Pm-3m,-1.021813337,0.0,0.0,Sn,N,Nd
mp-22350,Nd3 Sn1 N1,5.83455,5.83455,5.83455,90.0,90.0,90.0,cubic,Pm-3m,1.116426828,2.138240164,0.0,Sn,N,Nd
mp-21854,Nd3 Tl1 C1,5.825617,5.825617,5.825617,90.0,90.0,90.0,cubic,Pm-3m,1.607024037,1.830708546,0.0,Tl,C,Nd
mp-22496,Nd3 Tl1 N1,5.833587,5.833587,5.833587,90.0,90.0,90.0,cubic,Pm-3m,1.27220101,2.054115963,0.0,Tl,N,Nd
mp-1069375,Nd1 Al3 Cu1,6.083480915,6.083480915,6.083480915,139.4664584,139.4664584,58.66430855,tet,I4mm,-0.518551503,0.0,0.0,Nd,Cu,Al
mp-14254,Nd1 Al1 O3,5.282518443,5.282518675,5.282517606,60.0001515,60.00015077,60.00014408,cubic,Pm-3m,-3.644979264,0.027490917,2.8636,Nd,Al,O