mp_id,composition,a_edge (angstrom),b_edge (angstrom),c_edge (angstrom),alpha_ang (deg),beta_ang (deg),gamma_ang (deg),crystal_system,space_group,formation_energy (eV/atom),energy_above_hull (eV/atom),band_gap (eV),A_site,B_site,X_site
mp-5073,Rb1 N1 O3,10.33967689,10.3396764,7.32885327,90.0,90.0,120.0000006,trig,P3_1,-1.404051305,0.017042037,3.2482,Rb,N,O
mp-614951,Rb1 N1 O3,11.6606432,11.6606432,7.391708,90.0,90.0,119.9999954,trig,P3_2,-1.381647608,0.039445733,3.1337,Rb,N,O
mp-752446,Rb1 N1 O3,4.708980741,4.708980741,4.708980346,81.70017533,81.70017533,81.70017263,trig,R32,-1.40005944,0.021033902,2.9815,Rb,N,O
mp-975274,Rb1 Na1 O3,4.527717,4.527717,4.527717,90.0,90.0,90.0,cubic,Pm-3m,-0.502171099,0.600423637,0.0,Rb,Na,O
mp-1075911,Rb1 Nb1 O3,4.098856,4.098856,4.098856,90.0,90.0,90.0,cubic,Pm-3m,-2.756314476,0.082736542,1.3563,Rb,Nb,O
mp-3283,Rb1 Nb1 O3,5.145686136,8.4724441,8.991564092,114.2100765,93.50123908,94.76049878,tri,P-1,-2.839051019,0.0,3.3093,Rb,Nb,O
mp-756063,Rb1 Nb1 O3,6.526222077,6.526222077,8.332043643,86.59608804,86.59608804,82.93079755,mono,C2/m,-2.814731651,0.024319368,2.8197,Rb,Nb,O
mp-27409,Rb1 Ni1 Br3,7.3562059,7.356206957,6.23210219,90.0,90.0,120.0000034,hex_,P6_3/mmc,-1.265927551,0.0,0.4723,Rb,Ni,Br
mp-23486,Rb1 Ni1 Cl3,6.97274846,6.972747066,5.88951826,90.0,90.0,119.9999969,hex_,P6_3/mmc,-1.551503014,0.0,0.7089,Rb,Ni,Cl
mp-556488,Rb1 Ni1 F3,5.832151668,5.832153553,14.27342523,89.99999687,89.99999394,119.9990536,hex_,P6_3/mmc,-2.617191799,0.0,4.6929,Rb,Ni,F
mp-975373,Rb1 Ni1 O3,4.051925,4.051925,4.051925,90.0,90.0,90.0,cubic,Pm-3m,-0.650802962,0.419787335,0.0,Rb,Ni,O
mp-975288,Rb1 Np1 O3,4.305523938,4.305542684,4.304774406,90.28442337,90.28837595,89.67589711,cubic,Pm-3m,-3.077545228,0.012339059,0.0,Rb,Np,O
mp-1040467,Rb1 Os1 O3,3.974097,3.974097,3.974097,90.0,90.0,90.0,cubic,Pm-3m,-1.520245183,0.090559169,0.0,Rb,Os,O
mp-998602,Rb1 Os1 O3,5.469656641,5.483280644,6.927613491,66.78673358,66.84335152,59.91492004,trig,R-3,-1.610804351,0.0,0.0,Rb,Os,O
mp-1179733,Rb1 P1 O3,18.857954,7.534718,9.14706901,84.3767658,90.0,90.0,mono,P2_1/c,-1.502340608,1.178719974,0.0949,Rb,P,O
mp-4135,Rb1 P1 O3,4.23479786,6.481794279,13.12275816,66.49759589,90.0,90.0,mono,P2_1/c,-2.681060582,0.0,5.1119,Rb,P,O
mp-548658,Rb1 P1 O3,7.348147027,7.348147027,4.862531,90.0,90.0,131.1772254,ortho,Cmcm,-2.62928008,0.051780502,4.5235,Rb,P,O
mp-616587,Rb1 P1 O3,4.60648002,11.86328964,14.51769467,63.62141224,90.0,90.0,mono,P2_1/c,-2.678589662,0.00247092,5.0926,Rb,P,O
mp-9138,Rb1 P1 O3,4.51776972,6.09760948,12.75847234,90.0,90.0,90.0,ortho,Pnma,-2.669497774,0.011562808,4.7607,Rb,P,O
mp-556953,Rb1 P1 S3,7.024475613,7.257306805,7.257306958,72.93797437,61.0557326,61.05572351,ortho,Immm,-0.978887932,0.0,1.8376,Rb,P,S
mp-571464,Rb1 P1 Se3,7.474135477,7.473874796,19.36625941,89.99932197,90.00194187,119.9973452,trig,P3_121,-0.805161338,0.0,1.123,Rb,P,Se
mp-1206844,Rb1 Pa1 O3,4.38112501,4.38112501,4.38112501,90.0,90.0,90.0,cubic,Pm-3m,-3.530613109,0.0,3.001,Rb,Pa,O
mp-998176,Rb1 Pb1 Br3,5.985084363,5.985084363,5.980424008,89.94260671,89.94260671,90.06771908,mono,Cm,-1.573023442,0.039393365,1.7508,Rb,Pb,Br
mp-998603,Rb1 Pb1 Br3,4.458387341,7.676617825,11.22836159,90.0,90.0,106.8458384,ortho,Cmcm,-1.612416808,0.0,2.8211,Rb,Pb,Br
mp-1209191,Rb1 Pb1 Cl3,5.723076,5.723076,5.723076,90.0,90.0,90.0,cubic,Pm-3m,-1.828409371,0.03835282,2.1963,Rb,Pb,Cl
mp-998604,Rb1 Pb1 Cl3,4.276082772,7.340583959,10.6939405,90.00075316,89.99625657,106.8102266,ortho,Cmcm,-1.866762192,0.0,3.263,Rb,Pb,Cl
mp-998605,Rb1 Pb1 Cl3,5.717154663,5.717154663,5.713945627,89.90838683,89.90838683,90.07350049,mono,Cm,-1.828629605,0.038132586,2.1948,Rb,Pb,Cl
mp-1173075,Rb1 Pb1 F3,11.09595818,6.840403326,8.16558,53.35437831,42.61618935,35.80034673,ortho,Ima2,-2.658711479,0.121696427,3.4164,Rb,Pb,F
mp-1179717,Rb1 Pb1 F3,4.741703412,4.764575094,20.67693634,89.19034702,104.7699298,90.08098369,tri,P-1,-2.764568669,0.015839237,4.017,Rb,Pb,F
mp-1540546,Rb1 Pb1 F3,9.361063103,6.446879579,6.791094373,58.21800898,43.5242133,46.49083906,trig,R3c,-2.780407906,0.0,3.8195,Rb,Pb,F
mp-21043,Rb1 Pb1 F3,4.861716,4.861716,4.861716,90.0,90.0,90.0,cubic,Pm-3m,-2.746318915,0.034088991,3.0445,Rb,Pb,F
mp-605350,Rb1 Pb1 F3,4.685139,4.948026556,17.83619439,90.98935837,95.20667924,89.91413782,tri,P-1,-2.724968454,0.055439452,3.996,Rb,Pb,F
mp-674508,Rb1 Pb1 F3,6.49086705,6.49086705,6.390391423,63.32526142,63.32526142,63.48656039,mono,Cc,-2.780147669,0.000260237,3.7853,Rb,Pb,F
mp-23517,Rb1 Pb1 I3,4.82902567,10.46796539,17.5311371,90.0,90.0,90.0,ortho,Pnma,-1.23594682,0.0,2.4518,Rb,Pb,I
mp-1385732,Rb1 Pd1 Br3,5.296201,5.289077,5.292232488,89.95704088,90.0,90.0,ortho,Amm2,-1.22110045,0.007196886,0.0,Rb,Pd,Br
mp-998174,Rb1 Pd1 Br3,5.296201362,5.292232081,5.289076872,90.04296173,89.97922295,90.01098389,mono,Pm,-1.22108945,0.007207886,0.0,Rb,Pd,Br
mp-998173,Rb1 Pd1 Cl3,4.94767089,4.94767089,4.94767089,90.0,90.0,90.0,cubic,Pm-3m,-1.437165257,0.043305495,0.0,Rb,Pd,Cl
mp-9060,Rb1 Pd1 F3,4.345685,4.345685,4.345685,90.0,90.0,90.0,cubic,Pm-3m,-2.119219071,0.043470065,0.0,Rb,Pd,F
mp-975255,Rb1 Pd1 O3,4.128309,4.128309,4.128309,90.0,90.0,90.0,cubic,Pm-3m,-0.774110666,0.155602799,0.0,Rb,Pd,O
mp-975236,Rb1 Pt1 O3,4.105072,4.105072,4.105072,90.0,90.0,90.0,cubic,Pm-3m,-0.888936314,0.160222984,0.0,Rb,Pt,O
mp-1186888,Rb1 Pu1 O3,4.28283457,4.28281789,4.28287974,90.0,90.0,90.0,cubic,Pm-3m,-2.885427986,0.022020938,0.0,Rb,Pu,O
mp-975216,Rb1 Re1 O3,3.984062,3.984062,3.984062,90.0,90.0,90.0,cubic,Pm-3m,-1.973228657,0.14681071,0.0,Rb,Re,O
mp-1186897,Rb1 Rh1 O3,4.042708,4.042708,4.042708,90.0,90.0,90.0,cubic,Pm-3m,-1.108701878,0.115868383,0.0,Rb,Rh,O
mp-975208,Rb1 Ru1 O3,3.978586,3.978586,3.978586,90.0,90.0,90.0,cubic,Pm-3m,-1.438422265,0.199182718,0.0,Rb,Ru,O
mp-3404,Rb1 S1 O3,10.12309926,10.12310853,6.453717471,89.99853468,90.00193683,120.0003818,trig,P321,-2.077226297,0.007402476,5.0206,Rb,S,O
mp-975206,Rb1 Sb1 O3,4.09054,4.09054,4.09054,90.0,90.0,90.0,cubic,Pm-3m,-1.799211039,0.096659122,0.0,Rb,Sb,O
mp-1206561,Rb1 Sc1 Br3,6.13981006,7.750782915,7.751524807,120.0033702,89.99956561,90.00103866,hex_,P6_3/mmc,-1.973891515,0.013491091,0.0,Rb,Sc,Br
mp-1206320,Rb1 Sc1 Cl3,7.311757677,7.311745027,5.89839408,90.00001326,89.99993037,120.0000509,hex_,P6_3/mmc,-2.302584637,0.0,0.0,Rb,Sc,Cl
mp-998299,Rb1 Se1 Br3,5.374461233,7.619161673,8.72161199,90.0,90.0,97.06039085,mono,P2_1/m,-1.095789011,0.050724697,1.2364,Rb,Se,Br
mp-998366,Rb1 Se1 Br3,5.49626467,5.49626467,5.48582805,90.0,90.0,90.0,tet,P4mm,-1.086418259,0.060095449,0.0,Rb,Se,Br
mp-725554,Rb1 Se1 O3,5.505499,5.771568494,7.390523039,107.5653421,107.9424738,92.66571236,tri,P-1,-1.433664398,0.174372124,0.0368,Rb,Se,O
mp-1206676,Rb1 Sm1 I3,8.614080203,8.614080203,11.948769,90.0,90.0,151.0140073,ortho,Cmcm,-1.517930175,0.056198056,0.0,Rb,Sm,I
mp-975207,Rb1 Sm1 O3,4.576909,4.576909,4.576909,90.0,90.0,90.0,cubic,Pm-3m,-2.198183544,0.271069491,0.0,Rb,Sm,O
mp-998157,Rb1 Sn1 Br3,5.877776901,5.876641047,5.967052679,88.95795477,87.43691013,90.26964235,tri,P1,-1.478980026,0.044643826,0.601,Rb,Sn,Br
mp-998778,Rb1 Sn1 Br3,4.51432928,9.33432247,16.63637103,90.0,90.0,90.0,ortho,Pnma,-1.523623852,0.0,2.5418,Rb,Sn,Br
mp-998156,Rb1 Sn1 Cl3,5.598741,5.598741,5.612905749,89.40499047,89.40499047,90.0388011,mono,Cm,-1.760050879,0.02273852,0.9861,Rb,Sn,Cl
mp-998611,Rb1 Sn1 Cl3,7.846385026,7.846385026,7.84638508,61.22915159,61.22915159,61.22915282,trig,R3c,-1.782789398,0.0,2.3264,Rb,Sn,Cl
mp-1198796,Rb1 Sn1 F3,13.924065,8.412632,15.30846374,82.11373068,90.0,90.0,mono,P2_1/c,-2.785988096,0.0,3.6899,Rb,Sn,F
mp-998193,Rb1 Sn1 F3,4.609908,4.639338083,5.300348898,96.68175125,94.43941503,89.56276906,tri,P1,-2.743791204,0.042196892,3.4053,Rb,Sn,F
mp-998620,Rb1 Sn1 F3,6.522643338,6.522643332,6.522642942,62.42967913,62.42967916,62.429674,trig,R-3,-2.773164275,0.012823821,4.0234,Rb,Sn,F
mp-29405,Rb1 Sn1 I3,4.75301072,10.40655468,17.43905401,90.0,90.0,90.0,ortho,Pnma,-1.152261604,0.0,2.0077,Rb,Sn,I
mp-1186893,Rb1 Sn1 O3,4.200596,4.200596,4.200596,90.0,90.0,90.0,cubic,Pm-3m,-1.649811396,0.185850815,0.0,Rb,Sn,O
mp-1209047,Rb1 Sr1 Cl3,5.696304,5.696304,5.696304,90.0,90.0,90.0,cubic,Pm-3m,-2.599821414,0.041054575,4.6262,Rb,Sr,Cl
mp-1209111,Rb1 Sr1 Cl3,7.73440649,7.73440649,5.71582055,90.0,90.0,90.0,tet,P4/mbm,-2.631405034,0.009470955,4.8958,Rb,Sr,Cl
mp-1209174,Rb1 Sr1 Cl3,7.849509981,7.919335925,11.223316,90.0,90.0,89.5406509,mono,P2_1/m,-2.638754893,0.002121096,5.1392,Rb,Sr,Cl
mp-998155,Rb1 Sr1 Cl3,5.702547705,5.702547705,5.698591807,89.92488093,89.92488093,90.06517747,mono,Cm,-2.599828696,0.041047293,4.621,Rb,Sr,Cl
mp-998755,Rb1 Sr1 Cl3,7.674758349,7.67475913,8.402942914,62.82750999,62.82751262,60.00000675,trig,R-3,-2.640282148,0.00059384,5.318,Rb,Sr,Cl
mp-1205862,Rb1 Sr1 I3,8.266866313,8.266866313,12.14825989,90.0,90.0,146.1268279,ortho,Cmcm,-1.868850924,0.0,4.0221,Rb,Sr,I
mp-975200,Rb1 Sr1 O3,4.852875,4.852875,4.852875,90.0,90.0,90.0,cubic,Pm-3m,-1.358791801,0.457093104,0.0,Rb,Sr,O
mp-1076534,Rb1 Ta1 O3,4.07122,4.07122,4.07122,90.0,90.0,90.0,cubic,Pm-3m,-2.975669706,0.056662274,2.0024,Rb,Ta,O
mp-3033,Rb1 Ta1 O3,6.430271023,6.430269925,8.168089365,86.24770949,86.24770814,83.070555,mono,C2/m,-3.032331979,0.0,3.5412,Rb,Ta,O
mp-755018,Rb1 Ta1 O3,4.091552947,4.091552947,4.091552425,89.91297528,89.91297528,89.91298191,trig,R3m,-2.979765,0.05256698,2.5106,Rb,Ta,O
mp-780619,Rb1 Ta1 O3,5.107742723,8.462529295,8.994656362,114.2673281,93.68768393,94.53177721,tri,P-1,-3.022135071,0.010196908,4.1149,Rb,Ta,O
mp-858693,Rb1 Ta1 O3,9.111957,8.579852331,5.173779565,94.58254888,93.74137273,114.1937909,tri,P-1,-0.646840463,2.385491517,0.0,Rb,Ta,O
mp-980058,Rb1 Tb1 O3,4.535039,4.535039,4.535039,90.0,90.0,90.0,cubic,Pm-3m,-2.27112435,0.258242988,0.0,Rb,Tb,O
mp-975190,Rb1 Te1 O3,4.172344,4.172344,4.172344,90.0,90.0,90.0,cubic,Pm-3m,-1.572874094,0.142506814,0.0,Rb,Te,O
mp-569807,Rb1 Ti1 Br3,7.502893943,7.516679307,6.457902759,89.80906724,90.01490505,119.9339419,hex_,P6_3/mmc,-1.68746009,0.004297471,0.0,Rb,Ti,Br
mp-28282,Rb1 Ti1 Cl3,7.231210848,7.232133718,5.70584475,90.10082694,89.76850655,120.0044219,hex_,P6_3/mmc,-2.029103173,0.0,0.0,Rb,Ti,Cl
mp-27812,Rb1 Ti1 I3,14.13681755,14.13681755,7.009562,90.0,90.0,119.9999979,hex_,P6_3cm,-1.19208202,0.067067689,0.0,Rb,Ti,I
mp-1114101,Rb1 Tl1 Br3,8.344349336,8.344349336,8.344349336,60.0,60.0,60.0,cubic,Fm-3m,-1.391626091,0.025314896,0.9634,Rb,Tl,Br
mp-998391,Rb1 Tl1 Br3,5.836054919,5.836054919,5.833034045,89.96607963,89.96607963,90.00744189,mono,Cm,-1.393226987,0.023714,0.0,Rb,Tl,Br
mp-998606,Rb1 Tl1 Br3,8.227679174,8.227679174,8.227679052,60.01287335,60.01287335,60.0128728,trig,R3c,-1.390429809,0.026511178,0.0,Rb,Tl,Br
mp-1113994,Rb1 Tl1 Cl3,7.96497382,7.96497382,7.96497382,60.0,60.0,60.0,cubic,Fm-3m,-1.630516635,0.030693202,1.1539,Rb,Tl,Cl
mp-1113914,Rb1 Tl1 F3,6.688565187,6.688565187,6.688565187,60.0,60.0,60.0,cubic,Fm-3m,-2.479778006,0.0,2.0588,Rb,Tl,F
mp-1410049,Rb1 Tl1 F3,4.749462396,4.749462396,4.746798926,89.59303074,89.59303074,89.62412116,ortho,Amm2,-2.42716079,0.052617216,0.0,Rb,Tl,F
mp-998434,Rb1 Tl1 F3,6.644351,9.293565,13.383602,90.0,90.0,90.0,ortho,Pbam,-2.438023437,0.041754568,0.0,Rb,Tl,F
mp-998607,Rb1 Tl1 F3,4.746798483,4.74972494,4.749199623,89.62412529,89.34258805,89.8434481,mono,Cm,-2.426912402,0.052865604,0.0,Rb,Tl,F
mp-1114149,Rb1 Tl1 I3,8.89621648,8.89621648,8.89621648,60.0,60.0,60.0,cubic,Fm-3m,-1.024051937,0.091221131,0.0,Rb,Tl,I
mp-975179,Rb1 Tl1 O3,4.465736,4.465736,4.465736,90.0,90.0,90.0,cubic,Pm-3m,-0.787428181,0.322265232,0.0,Rb,Tl,O
mp-1209127,Rb1 Tm1 Br3,7.597736,8.098051,11.13366,90.0,90.0,90.0,ortho,Pnma,-1.838053153,0.162648542,0.0,Rb,Tm,Br
mp-1209132,Rb1 Tm1 I3,8.243836,8.641627,11.937015,90.0,90.0,90.0,ortho,Pnma,-1.383184026,0.159120594,0.0,Rb,Tm,I
mp-1209166,Rb1 Tm1 I3,4.321601,10.245713,17.966225,90.0,90.0,90.0,ortho,Pnma,-1.486592642,0.055711978,0.2353,Rb,Tm,I
mp-981550,Rb1 Tm1 O3,4.455645,4.455645,4.455645,90.0,90.0,90.0,cubic,Pm-3m,-2.340062961,0.243250292,0.0,Rb,Tm,O
mp-11775,Rb1 U1 O3,4.32836957,4.32837261,4.32837261,90.0,90.0,90.0,cubic,Pm-3m,-3.30458512,0.0,0.4542,Rb,U,O
mp-29314,Rb1 V1 Br3,12.90835489,12.90826948,6.46967678,89.99976785,90.00013511,119.9992924,hex_,P6_3cm,-1.548910446,6.27e-05,0.619,Rb,V,Br
mp-568136,Rb1 V1 Br3,12.89200448,12.89195418,6.45834038,90.00080995,89.999575,119.9999502,trig,P-3c1,-1.54897312,0.0,0.6079,Rb,V,Br
mp-570099,Rb1 V1 Br3,7.44792638,7.447937484,6.45835375,89.99999874,90.00000321,119.998829,hex_,P6_3/mmc,-1.54850427,0.000468849,0.5839,Rb,V,Br
mp-23319,Rb1 V1 Cl3,7.02059643,7.020593592,6.16212563,90.0,90.0,119.9999828,hex_,P6_3/mmc,-1.871321572,0.0,0.4023,Rb,V,Cl
mp-556424,Rb1 V1 F3,4.18167212,4.18171472,4.18157622,90.0,90.0,90.0,cubic,Pm-3m,-3.036011711,0.0,2.2325,Rb,V,F
mp-672346,Rb1 V1 I3,14.0301403,14.0301403,7.029792,90.0,90.0,120.0000014,hex_,P6_3cm,-1.100814098,0.022228082,0.682,Rb,V,I
mp-1076638,Rb1 V1 O3,3.915187,3.915187,3.915187,90.0,90.0,90.0,cubic,Pm-3m,-2.052223973,0.357393585,0.2498,Rb,V,O
mp-19031,Rb1 V1 O3,5.319552,5.70559893,11.31629318,90.0,90.0,90.0,ortho,Pbcm,-2.409617558,0.0,3.0572,Rb,V,O
mp-975138,Rb1 W1 O3,4.058288,4.058288,4.058288,90.0,90.0,90.0,cubic,Pm-3m,-2.040945845,0.153238206,0.0,Rb,W,O
mp-975173,Rb1 Y1 O3,4.543095,4.543095,4.543095,90.0,90.0,90.0,cubic,Pm-3m,-2.258841819,0.256370944,0.0,Rb,Y,O
mp-4975,Rb1 Zn1 F3,5.887971132,5.887970705,14.41410263,90.00000098,89.9999883,119.9994431,hex_,P6_3/mmc,-2.796601447,0.0,4.0784,Rb,Zn,F
mp-975159,Rb1 Zn1 O3,4.164075,4.164075,4.164075,90.0,90.0,90.0,cubic,Pm-3m,-0.881029198,0.418686624,0.0,Rb,Zn,O
mp-974581,Re1 Bi1 O3,4.023439,4.023439,4.023439,90.0,90.0,90.0,cubic,Pm-3m,-1.210774598,0.504280095,0.0,Re,Bi,O
mp-974724,Re1 Cl1 O3,9.04782768,5.589611587,9.016628178,57.03039353,90.0,90.0,mono,P2_1/c,-1.857125913,0.0,3.5834,Re,Cl,O
mp-1245819,Re1 Mo1 N3,9.32923065,5.603791262,8.55934789,109.2220207,90.6084819,122.6152548,tri,P-1,0.081269109,0.356268649,0.0,Re,Mo,N
mp-573051,Re1 O3 F1,6.08501428,6.809656732,10.47486922,89.74707039,90.0,90.0,mono,P2/c,-2.186467526,0.0,3.009,Re,F,O
mp-974511,Re1 Sb1 O3,3.990574,3.990574,3.990574,90.0,90.0,90.0,cubic,Pm-3m,-1.133369952,0.604047279,0.0,Re,Sb,O
mp-974505,Re1 Te1 O3,4.005481,4.005481,4.005481,90.0,90.0,90.0,cubic,Pm-3m,-0.912964105,0.794627099,0.0,Re,Te,O
mp-1247323,Re1 W1 N3,3.892727318,8.048209004,9.460464011,101.1134783,115.4138775,102.0139678,tri,P-1,0.004378987,0.30675753,0.0,Re,W,N
mp-1246660,Rh1 W1 N3,5.962713822,6.47528289,10.50025426,101.0344077,132.9625168,88.38441699,tri,P-1,0.101874508,0.380526966,0.0,Rh,W,N
mp-974337,Ru1 Pb1 O3,4.000143,4.000143,4.000143,90.0,90.0,90.0,cubic,Pm-3m,-1.305190313,0.176023032,0.0,Ru,Pb,O
mp-1209117,S1 N1 F3,6.846457,7.619584,7.892592,90.0,90.0,90.0,ortho,Pnma,-1.143719164,0.354124787,4.2402,S,N,F
mp-734059,S1 N1 O3,8.178549,8.333178,9.319157,90.0,90.0,90.0,ortho,Pbca,-0.240626684,1.023835537,0.0,S,N,O
mp-28109,Sb1 As1 O3,13.18079052,4.582365786,6.80426344,53.12739553,90.0,90.0,mono,P2_1/c,-1.697553926,0.0,3.5099,Sb,As,O
mp-1186920,Sb1 Au1 O3,4.002397,4.002397,4.002397,90.0,90.0,90.0,cubic,Pm-3m,-0.897682479,0.402250283,0.0,Sb,Au,O
mp-626182,Sb1 H1 O3,7.360286075,7.360286075,7.360286075,117.6066431,117.6066431,94.19794549,tet,I4_1/amd,-1.579670966,0.027953795,1.416,Sb,H,O
mp-626218,Sb1 H1 O3,7.505387749,7.262888166,7.269138417,62.190848,58.86401325,58.94819287,ortho,Fdd2,-1.591824771,0.01579999,1.4139,Sb,H,O
mp-1101381,Sb1 O1 F3,5.318809159,5.318809159,5.318809159,138.0662186,134.22002,63.81102294,ortho,Immm,-2.296867316,0.046805685,1.4495,Sb,O,F
mp-757111,Sb1 O1 F3,6.738797,7.739072627,8.429646647,98.50379439,111.4439369,109.8959998,tri,P-1,-2.334640646,0.009032356,2.6517,Sb,O,F
mp-758096,Sb1 O1 F3,9.31185,9.31185,3.775778,90.0,90.0,90.0,tet,P-42_1m,-2.303965089,0.039707913,1.9231,Sb,O,F
mp-761759,Sb1 O1 F3,5.588086,7.501812,9.484393581,67.28262488,90.0,90.0,mono,P2_1/c,-2.260126563,0.083546438,2.6842,Sb,O,F
mp-1246386,Sb1 Pb3 N1,7.22317132,7.22317132,7.22317132,93.27071903,116.8954529,119.3788583,ortho,Imma,0.295102212,0.295102212,0.0,Sb,N,Pb
mp-1186948,Sb1 Pb1 O3,4.216556,4.216556,4.216556,90.0,90.0,90.0,cubic,Pm-3m,-1.563771337,0.170292251,0.0,Sb,Pb,O
mp-1186927,Sb1 Pd1 O3,3.993415,3.993415,3.993415,90.0,90.0,90.0,cubic,Pm-3m,-0.911754811,0.507579739,0.0,Sb,Pd,O
mp-973269,Sb1 Te1 O3,4.17312,4.17312,4.17312,90.0,90.0,90.0,cubic,Pm-3m,-0.853818866,0.702754502,0.0,Sb,Te,O
mp-4079,Sc3 Al1 C1,4.5094935,4.5094935,4.5094935,90.0,90.0,90.0,cubic,Pm-3m,-0.594227929,0.0,0.0,Al,C,Sc
mp-10133,Sc3 B1 Pb1,4.67792943,4.67792943,4.67792943,90.0,90.0,90.0,cubic,Pm-3m,-0.613486306,0.0,0.0,B,Pb,Sc
mp-8577,Sc3 Ga1 C1,4.4743237,4.4743237,4.4743237,90.0,90.0,90.0,cubic,Pm-3m,-0.671966838,0.0,0.0,Ga,C,Sc
mp-19726,Sc3 In1 B1,4.688983,4.688983,4.688983,90.0,90.0,90.0,cubic,Pm-3m,-0.473432981,0.084548917,0.0,In,B,Sc
mp-8578,Sc3 In1 C1,4.55061831,4.55061831,4.55062449,90.0,90.0,90.0,cubic,Pm-3m,-0.667046574,0.0,0.0,In,C,Sc
mp-31055,Sc3 In1 N1,4.46445515,4.46445824,4.46445824,90.0,90.0,90.0,cubic,Pm-3m,-1.190039605,0.0,0.0,In,N,Sc
mp-21035,Sc3 Pb1 C1,4.55407219,4.55407219,4.55407219,90.0,90.0,90.0,cubic,Pm-3m,-0.677069714,0.0,0.0,Pb,C,Sc
mp-10139,Sc3 Sn1 B1,4.65396808,4.65396808,4.65396808,90.0,90.0,90.0,cubic,Pm-3m,-0.675955673,0.0,0.0,Sn,B,Sc
mp-16297,Sc3 Sn1 C1,4.53027743,4.53027743,4.53027743,90.0,90.0,90.0,cubic,Pm-3m,-0.789343326,0.0,0.0,Sn,C,Sc
mp-10140,Sc3 Tl1 B1,4.690238,4.690238,4.690238,90.0,90.0,90.0,cubic,Pm-3m,-0.418380285,0.03394774,0.0,Tl,B,Sc
mp-4230,Sc3 Tl1 C1,4.54420828,4.54420828,4.54420828,90.0,90.0,90.0,cubic,Pm-3m,-0.619868935,0.0,0.0,Tl,C,Sc
mp-776150,Sc1 Ag1 O3,6.488969059,6.488969059,3.220464,90.0,90.0,103.2161045,ortho,Cmmm,-2.110980848,0.060727019,0.3612,Sc,Ag,O
mp-4471,Sc1 Al1 O3,4.97364,5.264203,7.297695,90.0,90.0,90.0,ortho,Pnma,-3.669621607,0.028020217,4.5919,Sc,Al,O
mp-973156,Sc1 As1 O3,3.942009,3.942009,3.942009,90.0,90.0,90.0,cubic,Pm-3m,-1.749711738,1.047828888,0.0,Sc,As,O
mp-10113,Sc1 B1 Ir3,4.12710079,4.12710079,4.12710079,90.0,90.0,90.0,cubic,Pm-3m,-0.659335981,0.0,0.0,Sc,B,Ir
mp-8697,Sc1 B1 O3,5.799975271,5.799975081,5.799976905,48.58945306,48.58945178,48.58945248,trig,R-3c,-3.436941157,0.0,4.118,Sc,B,O
mp-1017631,Sc1 B1 Pd3,4.234957,4.234957,4.234957,90.0,90.0,90.0,cubic,Pm-3m,-0.558408953,0.156873191,0.0,Sc,B,Pd
mp-1018627,Sc1 B1 Pt3,4.262156,4.262156,4.262156,90.0,90.0,90.0,cubic,Pm-3m,-0.636092647,0.19588053,0.0,Sc,B,Pt
mp-569875,Sc1 B1 Rh3,4.09667077,4.09667077,4.09667077,90.0,90.0,90.0,cubic,Pm-3m,-0.753386327,0.0,0.0,Sc,B,Rh
mp-1101383,Sc1 Bi1 O3,6.014840323,6.014840323,6.014840772,56.62642017,56.62642017,56.6264239,trig,R-3,-2.731644612,0.073585316,2.1479,Sc,Bi,O
mp-550008,Sc1 Bi1 O3,4.075793,4.075793,4.075793,90.0,90.0,90.0,cubic,Pm-3m,-2.448213882,0.357016046,0.6897,Sc,Bi,O
mp-555313,Sc1 Bi1 O3,5.795712832,5.795712832,10.14954145,73.78835563,73.78835563,61.12742951,mono,Cc,-2.771496174,0.033733754,2.6897,Sc,Bi,O
mp-555769,Sc1 Bi1 O3,5.795522631,5.795522631,10.14259118,73.79084707,73.79084707,61.12308309,mono,C2/c,-2.770747503,0.034482425,2.6784,Sc,Bi,O
mp-754009,Sc1 Bi1 O3,5.918435861,5.918435861,5.918435647,58.49293785,58.49293785,58.49293269,trig,R3c,-2.783797551,0.021432377,3.0834,Sc,Bi,O
mp-756205,Sc1 Bi1 O3,5.600617,5.909651,8.104093,90.0,90.0,90.0,ortho,Pnma,-2.773072767,0.032157161,2.9082,Sc,Bi,O
mp-10270,Sc1 Co3 C1,3.78085852,3.78097813,3.78097813,90.0,90.0,90.0,cubic,Pm-3m,-0.279485925,0.0,0.0,Sc,C,Co
mp-1186980,Sc1 Co1 O3,3.661868,3.661868,3.661868,90.0,90.0,90.0,cubic,Pm-3m,-2.040111364,0.559231103,0.786,Sc,Co,O
mp-1643785,Sc1 Co1 O3,5.011454321,5.446058692,7.41955288,90.00222741,88.92155958,89.99745961,mono,P2_1/c,-2.530143647,0.06919882,0.8962,Sc,Co,O
mp-754124,Sc1 Co1 O3,5.011564054,5.409577002,7.655569811,90.00165402,89.73397158,89.99754113,ortho,Pnma,-2.529875858,0.069466609,0.0,Sc,Co,O
mp-18961,Sc1 Cr1 O3,5.088884,5.407961,7.553968,89.99998182,90.00002643,90.00002185,ortho,Pnma,-3.130813287,0.036846918,2.4178,Sc,Cr,O
mp-973068,Sc1 Cu1 O3,3.728893,3.728893,3.728893,90.0,90.0,90.0,cubic,Pm-3m,-1.837501564,0.572803505,0.0,Sc,Cu,O