mp_id,composition,a_edge (angstrom),b_edge (angstrom),c_edge (angstrom),alpha_ang (deg),beta_ang (deg),gamma_ang (deg),crystal_system,space_group,formation_energy (eV/atom),energy_above_hull (eV/atom),band_gap (eV),A_site,B_site,X_site
mp-866826,Ca1 Sn1 S3,7.340340541,7.340340541,7.340340401,54.81415603,54.81415603,54.81415303,trig,R-3,-1.314704054,0.072375599,1.6173,Ca,Sn,S
mp-866833,Ca1 Sn1 S3,6.711314505,6.711314505,6.351312,90.0,90.0,120.000005,hex_,P6_3/mmc,-0.997594125,0.389485528,0.0,Ca,Sn,S
mp-866844,Ca1 Sn1 S3,6.730638,7.06358,9.634918,90.0,90.0,90.0,ortho,Pnma,-1.275562372,0.111517281,0.9076,Ca,Sn,S
mp-866845,Ca1 Sn1 S3,6.959651013,6.959651013,6.959651013,120.6806086,119.5320966,89.81877747,ortho,Ima2,-1.22265395,0.164425703,0.6919,Ca,Sn,S
mp-866850,Ca1 Sn1 S3,6.484474653,6.484474653,9.421745,90.0,90.0,146.0444565,ortho,Cmcm,-1.298112878,0.088966775,0.4247,Ca,Sn,S
mp-866894,Ca1 Sn1 S3,5.703389096,5.703389096,4.12008,90.0,90.0,100.9674635,ortho,Amm2,-0.892016164,0.495063489,0.0,Ca,Sn,S
mp-866917,Ca1 Sn1 S3,4.952503977,4.952503977,5.398577,90.0,90.0,109.8281032,ortho,Amm2,-1.092003496,0.295076157,0.0,Ca,Sn,S
mp-866936,Ca1 Sn1 S3,6.551173,6.915074,10.30842,90.0,90.0,90.0,ortho,Pnma,-1.173629212,0.213450442,0.2488,Ca,Sn,S
mp-866941,Ca1 Sn1 S3,10.208588,7.359663,7.423239505,80.65087032,90.0,90.0,mono,P2_1/c,-1.303716643,0.08336301,1.3663,Ca,Sn,S
mp-866951,Ca1 Sn1 S3,10.2062448,10.2062448,10.20624455,38.69621169,38.69621169,38.69620872,trig,R-3m,-0.951940843,0.435138811,0.0,Ca,Sn,S
mp-867022,Ca1 Sn1 S3,6.993941,10.74142788,12.55781037,110.2286632,90.25348304,92.72687907,tri,P1,-1.201139111,0.185940543,1.1208,Ca,Sn,S
mp-867047,Ca1 Sn1 S3,16.05072377,16.05072377,16.18866693,65.63586428,65.63586428,25.54315541,mono,C2,-1.174282431,0.212797223,0.0,Ca,Sn,S
mp-867053,Ca1 Sn1 S3,11.726225,13.59435595,16.41044599,97.2050274,92.21788564,105.6627519,tri,P1,-1.16554495,0.221534704,0.0,Ca,Sn,S
mp-989634,Ca1 Tc1 N3,7.398940414,7.398940414,6.239396578,74.76614251,74.76614251,84.13079003,mono,C2/c,-0.56123761,0.012092533,1.4065,Ca,Tc,N
mp-989638,Ca1 Tc1 N3,3.638906312,6.367023437,6.437673752,105.0711329,90.00000126,106.6044106,mono,C2/m,-0.573330142,0.0,0.474,Ca,Tc,N
mp-1188853,Ca1 Tc1 O3,5.42016857,5.59445017,7.74489509,90.0,90.0,90.0,ortho,Pnma,-2.475116318,0.0,0.0,Ca,Tc,O
mp-998432,Ca1 Tc1 O3,3.927182918,3.938709003,3.948519327,89.75916015,89.87527471,89.96474488,mono,Cm,-2.366076372,0.109039947,0.0,Ca,Tc,O
mp-998525,Ca1 Tc1 O3,3.937865147,3.937865147,3.938709907,89.86167546,89.86167546,89.87528429,tet,P4mm,-2.366164424,0.108951895,0.0,Ca,Tc,O
mp-998543,Ca1 Tc1 O3,5.499367206,5.499367206,5.499367246,60.72498468,60.72498468,60.72498979,trig,R3c,-2.445627499,0.02948882,0.0,Ca,Tc,O
mp-1195263,Ca1 Te1 O3,6.551254,8.23491,13.777608,90.0,90.0,90.0,ortho,Pca2_1,-2.383990875,0.027080403,3.5191,Ca,Te,O
mp-1228456,Ca1 Te1 O3,10.506707,11.45506331,14.27644869,77.99911869,84.79612879,72.86985758,tri,P-1,-2.395577252,0.015494026,3.1072,Ca,Te,O
mp-1366217,Ca1 Te1 O3,12.11414408,12.11414408,11.07393812,90.0,90.0,90.0,tet,P4_1,-2.411071278,0.0,2.895,Ca,Te,O
mp-17008,Ca1 Te1 O3,5.69158575,8.463031369,11.34300822,69.753312,90.0,90.0,mono,P2_1,-2.395319489,0.015751788,3.2993,Ca,Te,O
mp-2981,Ca1 Te1 O3,10.598158,11.37964547,13.93153641,103.3460035,85.72763984,108.874024,tri,P-1,-2.399536539,0.011534739,2.9607,Ca,Te,O
mp-560097,Ca1 Te1 O3,5.749993,8.67375,22.94403208,69.12707607,90.0,90.0,mono,P2_1/c,-2.397842235,0.013229043,3.2975,Ca,Te,O
mp-560656,Ca1 Te1 O3,12.272661,12.272661,11.19773,90.0,90.0,90.0,tet,P4_3,-2.408295005,0.002776273,2.9438,Ca,Te,O
mp-561374,Ca1 Te1 O3,10.455993,11.46656368,14.21803649,78.07817309,85.12928182,72.65453033,tri,P1,-2.397524383,0.013546894,3.1522,Ca,Te,O
mp-1205364,Ca1 Ti1 O3,5.411361367,5.411361367,7.68509595,90.0,90.0,90.60100907,ortho,Cmcm,-3.544637565,0.011449592,2.1378,Ca,Ti,O
mp-3442,Ca1 Ti1 O3,5.441143344,5.441143344,5.441143344,120.8454907,120.8454907,88.54170097,tet,I4/mcm,-3.538690572,0.017396586,2.2434,Ca,Ti,O
mp-4019,Ca1 Ti1 O3,5.37204886,5.46279649,7.63635962,90.0,90.0,90.0,ortho,Pnma,-3.556087157,0.0,2.3053,Ca,Ti,O
mp-556003,Ca1 Ti1 O3,5.410401932,5.410401932,5.410401932,119.776557,119.5777824,90.56015927,ortho,Imma,-3.544675347,0.011411811,2.1586,Ca,Ti,O
mp-5827,Ca1 Ti1 O3,3.889471,3.889471,3.889471,90.0,90.0,90.0,cubic,Pm-3m,-3.49161956,0.064467598,1.8285,Ca,Ti,O
mp-754701,Ca1 Ti1 O3,5.92377492,5.92377492,5.923775101,53.59156917,53.59156917,53.59156818,trig,R-3,-3.527734469,0.028352689,3.5706,Ca,Ti,O
mp-1205521,Ca1 Tl1 Br3,7.406002468,7.406002468,10.87564125,90.0,90.0,146.5703633,ortho,Cmcm,-1.915718184,0.0,3.7234,Ca,Tl,Br
mp-998151,Ca1 Tl1 Cl3,5.400074196,5.400074196,5.397680296,89.98658232,89.98658232,90.02388806,mono,Cm,-2.187154795,0.038755097,3.9626,Ca,Tl,Cl
mp-998787,Ca1 Tl1 Cl3,4.070888618,7.075985436,10.33872924,90.0,90.0,106.7970545,ortho,Cmcm,-2.225909892,0.0,4.2088,Ca,Tl,Cl
mp-1097061,Ca1 Tl1 F3,4.510864911,4.510864911,4.508624307,89.92703745,89.92703745,89.96285261,mono,Cm,-3.265298777,0.01810234,4.4565,Ca,Tl,F
mp-998150,Ca1 Tl1 F3,4.470460416,4.470460416,4.45005966,90.0,90.0,90.34013458,ortho,Amm2,-3.242386097,0.041015021,4.4564,Ca,Tl,F
mp-998615,Ca1 Tl1 F3,6.256542655,6.256543271,6.256544008,60.44334883,60.4433456,60.44335176,trig,R3c,-3.246527098,0.03687402,4.6281,Ca,Tl,F
mp-1206188,Ca1 Tl1 I3,7.925339799,7.925339799,11.65178533,90.0,90.0,146.419851,ortho,Cmcm,-1.466711517,0.016393085,3.2233,Ca,Tl,I
mp-1183538,Ca1 Tm1 O3,4.272108,4.272108,4.272108,90.0,90.0,90.0,cubic,Pm-3m,-2.966752421,0.401455955,0.0,Ca,Tm,O
mp-1016853,Ca1 V1 O3,3.830406,3.830406,3.830406,90.0,90.0,90.0,cubic,Pm-3m,-2.831268961,0.106231663,0.0,Ca,V,O
mp-1435359,Ca1 V1 O3,5.381454,5.437594,7.682538597,89.54560638,90.0,90.0,mono,P2_1/c,-2.928685933,0.008814691,0.2606,Ca,V,O
mp-22608,Ca1 V1 O3,5.31108468,5.354107228,7.551772193,90.0524375,90.0,90.0,ortho,Pnma,-2.936343998,0.001156626,0.4339,Ca,V,O
mp-989616,Ca1 W1 N3,3.629991136,5.796946249,7.44986265,105.7650397,104.1007684,90.00000299,mono,C2/m,-0.805868477,0.0,0.5612,Ca,W,N
mp-1342410,Ca1 W1 O3,5.580866,5.794242,7.910173,90.0,90.0,90.0,ortho,Pnma,-2.611401141,0.053646282,1.9784,Ca,W,O
mp-1431390,Ca1 W1 O3,4.09948691,4.09948691,4.128679097,88.8996766,88.8996766,86.7517945,mono,Cm,-2.444511071,0.220536353,0.0,Ca,W,O
mp-1183544,Ca1 Y1 O3,4.345547,4.345547,4.345547,90.0,90.0,90.0,cubic,Pm-3m,-2.822118803,0.477989083,0.0,Ca,Y,O
mp-1183540,Ca1 Zn1 O3,3.876625,3.876625,3.876625,90.0,90.0,90.0,cubic,Pm-3m,-1.802128079,0.238167658,0.0,Ca,Zn,O
mp-4571,Ca1 Zr1 O3,5.58500572,5.77809678,8.01738023,90.0,90.0,90.0,ortho,Pnma,-3.670175069,0.0,3.8263,Ca,Zr,O
mp-542112,Ca1 Zr1 O3,4.160071,4.160071,4.160071,90.0,90.0,90.0,cubic,Pm-3m,-3.478281985,0.191893085,3.2122,Ca,Zr,O
mp-776024,Ca1 Zr1 O3,5.831835,8.123604,11.457092,90.0,90.0,90.0,ortho,Pba2,-3.644809693,0.025365377,3.7448,Ca,Zr,O
mp-7781,Ca1 Zr1 S3,6.5877,7.082334,9.662054,90.0,90.0,90.0,ortho,Pnma,-2.031619071,0.036572482,1.1878,Ca,Zr,S
mp-1246622,Cd3 Sb1 N1,6.731846,6.634417,9.397146,90.0,90.0,90.0,ortho,Pnma,0.257562931,0.295910871,0.0,Sb,N,Cd
mp-1183631,Cd1 B1 O3,3.501721,3.501721,3.501721,90.0,90.0,90.0,cubic,Pm-3m,-0.988364041,1.024361148,0.0,Cd,B,O
mp-755478,Cd1 Bi1 O3,5.829561946,5.830423031,5.972227016,60.77515692,119.1751925,119.979308,trig,R3,-1.435096649,0.0,0.767,Cd,Bi,O
mp-1198558,Cd1 C1 O3,5.987672,7.475772,14.4341555,60.63000805,90.0,90.0,mono,P2_1/c,-1.188255169,0.567171788,0.0,Cd,C,O
mp-4385,Cd1 C1 O3,6.145127278,6.145126917,6.145126563,47.52436093,47.52436881,47.52435309,trig,R-3c,-1.755426957,0.0,2.6226,Cd,C,O
mp-547864,Cd1 C1 O3,4.143972673,4.143972673,4.143972779,93.4652389,93.4652389,93.46524145,trig,R-3m,1.477876694,3.233303651,0.0,Cd,C,O
mp-654812,Cd1 C1 O3,4.562464581,4.562464581,4.562464292,58.54831742,58.54831742,58.54830644,trig,R-3m,1.133319364,2.888746321,0.0,Cd,C,O
mp-1017553,Cd1 Co3 N1,3.855044,3.855044,3.855044,90.0,90.0,90.0,cubic,Pm-3m,-0.020277591,0.003899156,0.0,Cd,N,Co
mp-752746,Cd1 Co1 O3,5.314718,5.389024,7.589121,90.0,90.0,90.0,ortho,Pnma,-1.086660798,0.106052458,0.0,Cd,Co,O
mp-768578,Cd1 Co1 O3,5.131425083,6.839207884,6.83901004,96.83171662,94.51550162,85.49482023,mono,C2/c,-1.140474634,0.052238621,0.1302,Cd,Co,O
mp-770662,Cd1 Co1 O3,5.798157745,5.798157745,5.798157251,51.93096302,51.93096302,51.93096384,trig,R-3,-1.126618074,0.066095182,0.0,Cd,Co,O
mp-1290304,Cd1 Fe1 O3,5.37915513,5.506005087,7.669568101,89.99227199,90.26211392,89.98123974,mono,P2_1/c,-1.30860878,0.092556619,0.0,Cd,Fe,O
mp-1639105,Cd1 Fe1 O3,5.368368192,5.489292527,7.667267015,89.99821876,89.99297411,89.29287302,mono,P2_1/m,-1.30122432,0.09994108,0.0,Cd,Fe,O
mp-776476,Cd1 Fe1 O3,5.363036612,5.450160574,7.669738067,90.00236178,90.01492688,90.05260593,ortho,Pnma,-1.316018186,0.085147213,0.0,Cd,Fe,O
mp-1016903,Cd1 Ge1 O3,3.78249,3.78249,3.78249,90.0,90.0,90.0,cubic,Pm-3m,-1.555840298,0.324361613,0.1022,Cd,Ge,O
mp-1227040,Cd1 Ge1 O3,3.359398272,7.561494276,7.561494276,130.8875307,82.46524285,82.46524285,mono,Cc,-1.145502692,0.734699219,0.0742,Cd,Ge,O
mp-13003,Cd1 Ge1 O3,5.311913,5.36356,7.580681,90.0,90.0,90.0,ortho,Pnma,-1.740189572,0.140012338,0.8481,Cd,Ge,O
mp-2951,Cd1 Ge1 O3,7.04561341,7.04561341,5.399845231,81.38321713,81.38321713,86.93910729,mono,C2/c,-1.857041336,0.023160574,1.5369,Cd,Ge,O
mp-685935,Cd1 Ge1 O3,6.070451387,6.070451387,5.227937,90.0,90.0,126.4668661,ortho,Cmc2_1,-1.761561389,0.118640522,1.724,Cd,Ge,O
mp-7588,Cd1 Ge1 O3,10.89885762,10.89885762,10.89885762,109.1243703,109.1243703,110.1671708,tet,I4_1/a,-1.841437827,0.038764084,1.3002,Cd,Ge,O
mp-8275,Cd1 Ge1 O3,5.90404287,5.90404287,5.904043563,52.19537208,52.19537208,52.19538096,trig,R-3,-1.836166632,0.044035279,1.4099,Cd,Ge,O
mp-1096862,Cd1 H1 Cl3,5.218407,5.218407,5.218407,90.0,90.0,90.0,cubic,Pm-3m,-0.281748988,0.934244393,0.0,Cd,H,Cl
mp-505222,Cd1 In1 Br3,4.14038678,9.58047134,15.51440356,90.0,90.0,90.0,ortho,Pnma,-1.101525518,0.008280996,2.2208,Cd,In,Br
mp-1016828,Cd1 Ir1 O3,3.953165,3.953165,3.953165,90.0,90.0,90.0,cubic,Pm-3m,-0.831797829,0.463198415,0.0,Cd,Ir,O
mp-2647004,Cd1 Ir1 O3,5.462063,5.462062977,15.028055,90.0,90.0,120.0000062,trig,R-3,-1.187265922,0.107730322,0.0,Cd,Ir,O
mp-1080000,Cd1 N1 Cl3,7.511502454,7.511502454,7.402407,90.0,90.0,94.29612324,ortho,Cmcm,-0.171117362,0.593591947,2.0259,Cd,N,Cl
mp-1080587,Cd1 N1 Cl3,7.429165,5.873681,7.702877307,72.70934989,90.0,90.0,mono,P2_1/m,-0.040740792,0.723968517,0.8155,Cd,N,Cl
mp-1105591,Cd1 N1 Cl3,3.775054,9.826511,16.867689,90.0,90.0,90.0,ortho,Pnma,0.000848212,0.765557521,0.0,Cd,N,Cl
mp-726169,Cd1 N1 F3,6.118865,6.384258,8.450394,90.0,90.0,90.0,ortho,Pnma,-0.796035966,0.785136869,0.0,Cd,N,F
mp-1206343,Cd1 Ni3 C1,3.866162,3.866162,3.866162,90.0,90.0,90.0,cubic,Pm-3m,0.027468209,0.027468209,0.0,Cd,C,Ni
mp-1017554,Cd1 Ni3 N1,3.82153146,3.82154162,3.82153349,90.0,90.0,90.0,cubic,Pm-3m,-0.100675256,0.0,0.0,Cd,N,Ni
mp-1016882,Cd1 Os1 O3,3.942935,3.942935,3.942935,90.0,90.0,90.0,cubic,Pm-3m,-1.034996829,0.359573085,0.0,Cd,Os,O
mp-5328,Cd1 P1 S3,6.253369407,6.253369838,7.08480051,98.18604281,98.18605262,119.997975,mono,C2/m,-0.526616825,0.0,1.7562,Cd,P,S
mp-9330,Cd1 P1 S3,7.640597267,7.640596799,7.640597503,48.31174799,48.31174226,48.3117357,trig,R-3,-0.525813667,0.000803158,1.7727,Cd,P,S
mp-1079559,Cd1 P1 Se3,7.97359843,7.973598429,7.973597804,48.60264365,48.60264369,48.60264447,trig,R-3,-0.581421915,0.0,1.0486,Cd,P,Se
mp-685257,Cd1 Pb1 O3,9.085826746,9.085836675,9.085830953,110.5117259,109.8982517,108.0141558,ortho,Ibca,-1.375123976,0.0,0.0,Cd,Pb,O
mp-1016875,Cd1 Rh1 O3,3.951587,3.951587,3.951587,90.0,90.0,90.0,cubic,Pm-3m,-0.845729491,0.424103885,0.0,Cd,Rh,O
mp-1016849,Cd1 Ru1 O3,3.928223,3.928223,3.928223,90.0,90.0,90.0,cubic,Pm-3m,-1.079125577,0.333932101,0.0,Cd,Ru,O
mp-18634,Cd1 S1 O3,8.33582975,8.33582975,8.335829818,109.1080762,109.1080762,109.108082,trig,R-3,-1.62919926,0.099061639,3.0449,Cd,S,O
mp-556680,Cd1 S1 O3,12.82371,5.653769,8.753289224,79.78013993,90.0,90.0,mono,P2_1/c,-1.632030226,0.096230673,3.2188,Cd,S,O
mp-8516,Cd1 S1 O3,9.025715,4.573479,7.283293352,88.92985652,90.0,90.0,mono,P2_1/c,-1.631983969,0.09627693,3.3347,Cd,S,O
mp-559203,Cd1 Se1 O3,12.93395545,5.76007937,8.662010624,78.55157905,90.0,90.0,mono,P2_1/c,-1.408955207,0.005526025,3.4047,Cd,Se,O
mp-9186,Cd1 Se1 O3,5.32817807,6.31758539,8.12471485,90.0,90.0,90.0,ortho,Pnma,-1.414481231,0.0,3.0904,Cd,Se,O
mp-1016879,Cd1 Si1 O3,3.61992,3.61992,3.61992,90.0,90.0,90.0,cubic,Pm-3m,-2.161102249,0.374506267,0.6506,Cd,Si,O
mp-560560,Cd1 Si1 O3,7.28599731,6.992660796,15.10775788,85.123904,90.0,90.0,mono,P2_1/c,-2.535608516,0.0,2.8901,Cd,Si,O
mp-776023,Cd1 Si1 O3,5.519971,9.745057,9.852316,90.0,90.0,90.0,ortho,Pbcn,-2.508809583,0.026798933,2.7667,Cd,Si,O
mp-1016881,Cd1 Sn1 O3,4.057399,4.057399,4.057399,90.0,90.0,90.0,cubic,Pm-3m,-1.491440614,0.346307218,0.0,Cd,Sn,O
mp-1182642,Cd1 Sn1 O3,6.704443504,8.489199226,3.36531635,89.8481472,120.3362572,73.3216502,mono,P2_1/m,-1.75813686,0.079610972,0.7079,Cd,Sn,O
mp-754329,Cd1 Sn1 O3,5.933372171,5.933372293,5.933373283,55.14847345,55.14848066,55.14848451,trig,R-3,-1.837747832,0.0,0.9762,Cd,Sn,O
mp-849371,Cd1 Sn1 O3,5.47790823,5.60073751,7.91411222,90.0,90.0,90.0,ortho,Pnma,-1.807364579,0.030383253,0.6904,Cd,Sn,O
mp-1189706,Cd1 Tc1 O3,5.457801,5.548414,7.891164,90.0,90.0,90.0,ortho,Pnma,-1.552568545,0.115910814,0.0,Cd,Tc,O
mp-28290,Cd1 Te1 O3,11.30735991,7.451632652,7.831885009,66.44744827,90.0,90.0,mono,P2_1/c,-1.521631728,0.0,3.019,Cd,Te,O
mp-10036,Ce3 Al1 C1,4.98731642,4.98731967,4.98728285,90.0,90.0,90.0,cubic,Pm-3m,-0.227489443,0.0,0.0,Al,C,Ce
mp-10881,Ce3 Al1 N1,4.90922468,4.90926019,4.90924297,90.0,90.0,90.0,cubic,Pm-3m,-0.899761008,0.0,0.0,Al,N,Ce
mp-1206367,Ce3 Al1 O1,4.827101,4.827101,4.827101,90.0,90.0,90.0,cubic,Pm-3m,-1.405291577,0.026469116,0.0,Al,O,Ce
mp-1069526,Ce3 In1 C1,5.839523,5.839523,5.839523,90.0,90.0,90.0,cubic,Pm-3m,1.785599725,2.104923642,0.0,In,C,Ce
mp-20992,Ce3 In1 C1,5.04591409,5.0459467,5.04587929,90.0,90.0,90.0,cubic,Pm-3m,-0.319323917,0.0,0.0,In,C,Ce
mp-20550,Ce3 Pb1 C1,5.986195,5.986195,5.986195,90.0,90.0,90.0,cubic,Pm-3m,1.764186327,2.047164123,0.0,Pb,C,Ce
mp-20159,Ce3 Sn1 C1,5.843293,5.843293,5.843293,90.0,90.0,90.0,cubic,Pm-3m,1.617850444,2.007927048,0.0,Sn,C,Ce
mp-1206922,Ce3 Sn1 N1,4.97328277,4.97332533,4.97330351,90.0,90.0,90.0,cubic,Pm-3m,-1.04669557,0.0,0.0,Sn,N,Ce
mp-1245828,Ce3 Sn1 N1,5.878219,5.878219,5.878219,90.0,90.0,90.0,cubic,Pm-3m,1.285230038,2.331925608,0.0,Sn,N,Ce
mp-21319,Ce3 Tl1 C1,5.862354,5.862354,5.862354,90.0,90.0,90.0,cubic,Pm-3m,1.816786512,2.004008043,0.0,Tl,C,Ce
mp-1226650,Ce1 Al3 Ag1,4.305624527,4.305624507,6.321598309,70.16755411,70.16752025,90.10063256,tet,I4mm,-0.349742476,0.0,0.0,Ce,Ag,Al
mp-1070063,Ce1 Al3 Au1,6.250577623,6.250577623,6.250577623,139.5892607,139.5892607,58.47748186,tet,I4mm,-0.579720584,0.0,0.0,Ce,Au,Al
mp-1069443,Ce1 Al3 Cu1,6.094870783,6.094870783,6.094870783,139.4241182,139.4241182,58.72874578,tet,I4mm,-0.492592462,0.0,0.0,Ce,Cu,Al
mp-1226654,Ce1 Al3 Cu1,6.130488723,6.130488723,6.130488723,139.7146162,139.7146162,58.28687054,tet,I-4m2,-0.410920228,0.081672234,0.0,Ce,Cu,Al
mp-1226634,Ce1 Al3 Pd1,6.263127719,6.263127719,6.263127719,140.9531419,140.9531419,56.40890758,tet,I-4m2,-0.621950384,0.074296806,0.0,Ce,Pd,Al
mp-1226648,Ce1 Al3 Pt1,6.278851232,6.278851232,6.278851232,141.409972,141.409972,55.71858298,tet,I-4m2,-0.703615608,0.088338031,0.0,Ce,Pt,Al
mp-19843,Ce1 Al1 O3,5.29975512,5.35162614,7.53646362,90.0,90.0,90.0,ortho,Imma,-3.620338528,0.0,0.0,Ce,Al,O
mp-3408,Ce1 Al1 O3,5.310341729,5.310343356,5.310340091,60.4190235,60.41902344,60.41895289,trig,R-3c,-3.619700072,0.000638456,0.0,Ce,Al,O
mp-4096,Ce1 Al1 O3,5.330749434,5.330749434,5.330749434,120.30143,120.30143,89.47869598,tet,I4/mcm,-3.614738332,0.005600196,0.0,Ce,Al,O
mp-5323,Ce1 Al1 O3,3.76203913,3.76203913,3.76201474,90.0,90.0,90.0,cubic,Pm-3m,-3.603223499,0.017115029,0.0,Ce,Al,O
mp-776167,Ce1 Al1 O3,5.352054,5.353887,7.640165,90.0,90.0,90.0,ortho,Pnma,-3.617263174,0.003075354,0.0,Ce,Al,O
mp-1078398,Ce1 As1 O3,5.329352,4.409537,6.185939894,74.67431941,90.0,90.0,mono,P2_1/m,-2.745885613,0.152536309,0.0609,Ce,As,O
mp-1195015,Ce1 As1 O3,7.83511,8.352207,9.157426653,76.50559668,90.0,90.0,mono,P2_1/c,-2.818903421,0.079518501,0.2861,Ce,As,O
mp-20178,Ce1 B1 O3,4.12392223,5.07313499,6.264132842,90.0,107.704153,90.0,mono,P2_1/m,-3.406526372,0.005873612,0.0293,Ce,B,O
mp-20882,Ce1 B1 O3,5.07545184,5.77348995,8.22244861,90.0,90.0,90.0,ortho,Pnma,-3.412399984,0.0,0.0587,Ce,B,O
mp-19948,Ce1 B1 Pd3,4.381105,4.381105,4.381105,90.0,90.0,90.0,cubic,Pm-3m,-0.503660159,0.207866069,0.0,Ce,B,Pd
mp-22435,Ce1 B1 Pt3,3.99756756,3.99756756,5.14411559,90.0,90.0,90.0,tet,P4mm,-0.988254681,0.0,0.0,Ce,B,Pt
mp-510376,Ce1 B1 Rh3,4.21149204,4.2115074,4.21148897,90.0,90.0,90.0,cubic,Pm-3m,-0.799905212,0.0,0.0,Ce,B,Rh
mp-1189296,Ce1 B1 S3,6.00989239,7.69555744,8.97561916,90.0,90.0,90.0,ortho,Pna2_1,-1.517305853,0.012690894,0.0787,Ce,B,S
mp-1226619,Ce1 Be1 Al3,6.078223898,6.078223898,6.078223898,140.0484078,140.0484078,57.77980561,tet,I4mm,-0.312994215,0.024206002,0.0,Ce,Be,Al
mp-1183685,Ce1 Be1 O3,3.600447,3.600447,3.600447,90.0,90.0,90.0,cubic,Pm-3m,-3.178541142,0.418906897,0.8094,Ce,Be,O
mp-1213812,Ce1 Cd1 O3,6.005827128,6.002484069,8.480962,90.0,90.0,90.4353492,ortho,Cmcm,-2.716939539,0.177826718,1.5447,Ce,Cd,O
mp-21116,Ce1 Co1 Ge3,4.297285198,4.297286285,5.75826604,111.9094544,111.9094359,89.9999953,tet,I4mm,-0.570767637,0.0,0.0,Ce,Co,Ge
mp-568089,Ce1 Co1 Sb3,6.174765298,12.11587185,12.79168944,90.00072113,90.03978436,90.00042549,ortho,Pbcm,-0.667851144,0.0,0.0,Ce,Co,Sb
mp-1070753,Ce1 Co1 Si3,5.54809688,5.54809688,5.54809688,136.673224,136.673224,62.94121987,tet,I4mm,-0.657850022,0.0,0.0,Ce,Co,Si
mp-1226614,Ce1 Co1 Si3,5.732881218,5.732881218,5.732881218,139.5206011,139.5206011,58.58192601,tet,I-4m2,-0.46961322,0.188236802,0.0,Ce,Co,Si
mp-20650,Ce1 Cr1 Ge3,6.10950878,6.109507322,5.94625055,90.0,90.0,120.0000135,hex_,P6_3/mmc,-0.426064557,0.0,0.0,Ce,Cr,Ge
mp-20530,Ce1 Cr1 O3,3.90655,3.90655,3.90655,90.0,90.0,90.0,cubic,Pm-3m,-2.970420415,0.192202434,0.0,Ce,Cr,O
mp-780712,Ce1 Cr1 O3,5.486246,5.719757,7.808315,90.0,90.0,90.0,ortho,Pnma,-3.100860515,0.061762334,0.0,Ce,Cr,O
mp-21871,Ce1 Cr1 S3,3.77068444,7.86657679,13.07550999,90.0,90.0,90.0,ortho,Pnma,-1.671059271,0.0,0.0,Ce,Cr,S
mp-1213967,Ce1 Cr1 Sb3,6.144345,6.279858,12.936427,90.0,90.0,90.0,ortho,Pbcm,-0.588477098,0.002142545,0.0,Ce,Cr,Sb
mp-20170,Ce1 Cr1 Se3,3.95426344,8.21435316,13.73207985,90.0,90.0,90.0,ortho,Pnma,-1.471222202,0.0,0.0,Ce,Cr,Se
mp-977389,Ce1 Cu1 O3,3.832895,3.832895,3.832895,90.0,90.0,90.0,cubic,Pm-3m,-2.334185237,0.399238458,0.0,Ce,Cu,O
mp-20775,Ce1 Dy1 S3,4.0179022,7.43522514,15.31969114,90.0,90.0,90.0,ortho,Pnma,-2.4036576,0.0,0.0,Ce,Dy,S
mp-1202288,Ce1 Er1 S3,3.927197,10.970524,21.49247287,78.46956427,90.0,90.0,mono,P2_1/m,-2.342546155,0.011651462,0.0,Ce,Er,S
mp-638813,Ce1 Er1 S3,3.95232435,16.46592656,21.16864609,90.0,90.0,90.0,ortho,Pnma,-2.338959796,0.015237821,0.0,Ce,Er,S
mp-20722,Ce1 Fe1 Ge3,4.337515044,4.33751496,5.817986844,111.8863991,111.8863996,90.00001103,tet,I4mm,-0.504454995,0.0,0.0,Ce,Fe,Ge
mp-756062,Ce1 Fe1 O3,5.467034,5.78395,7.77725,90.0,90.0,90.0,ortho,Pnma,-2.869122613,0.07979086,0.6747,Ce,Fe,O
mp-864636,Ce1 Fe1 O3,3.933579,3.933579,3.933579,90.0,90.0,90.0,cubic,Pm-3m,-2.572784337,0.376129136,0.0,Ce,Fe,O
mp-1226621,Ce1 Ga3 Ag1,4.345808,4.345808,6.223812472,69.56604246,69.56604246,90.0,tet,I-4m2,-0.419328693,0.023199939,0.0,Ce,Ag,Ga
mp-1226631,Ce1 Ga3 Au1,4.339874232,4.339777339,6.163721618,69.54943372,69.54761994,90.14533346,tet,I4mm,-0.557484264,0.0,0.0,Ce,Au,Ga
mp-1206925,Ce1 Ga3 Cu1,3.643482,3.643482,8.098694797,102.9994995,102.9994995,90.0,tet,I4mm,-0.087949261,0.439562541,0.0,Ce,Cu,Ga
mp-1226613,Ce1 Ga3 Cu1,6.024622254,6.024622254,6.024622254,139.2127503,139.2127503,59.05059915,tet,I-4m2,-0.527511802,0.0,0.0,Ce,Cu,Ga
mp-1226580,Ce1 Ga3 Ni1,5.95269922,5.95269922,5.95269922,138.9518474,138.9518474,59.44828259,tet,I-4m2,-0.499538154,0.035686669,0.0,Ce,Ni,Ga