mp_id,composition,a_edge (angstrom),b_edge (angstrom),c_edge (angstrom),alpha_ang (deg),beta_ang (deg),gamma_ang (deg),crystal_system,space_group,formation_energy (eV/atom),energy_above_hull (eV/atom),band_gap (eV),A_site,B_site,X_site
mp-1187862,Y1 Si1 O3,3.723507,3.723507,3.723507,90.0,90.0,90.0,cubic,Pm-3m,-2.795143751,0.736387453,0.0,Y,Si,O
mp-1343054,Y1 Sn1 O3,5.932529,5.662117,10.26570904,56.89690748,90.0,90.0,mono,P2_1/c,-2.773369187,0.200435937,1.9502,Y,Sn,O
mp-1376465,Y1 Sn1 O3,6.42710594,6.42710594,12.576403,90.0,90.0,119.9999994,hex_,P6_3cm,-2.795236929,0.178568194,0.0,Y,Sn,O
mp-1394022,Y1 Sn1 O3,3.710566504,3.710566504,12.716999,90.0,90.0,120.000009,hex_,P6_3/mmc,-2.783438231,0.190366892,0.0,Y,Sn,O
mp-1412687,Y1 Sn1 O3,4.14186,4.14186,4.14186,90.0,90.0,90.0,cubic,Pm-3m,-2.163402606,0.810402517,0.0,Y,Sn,O
mp-989557,Y1 Tc1 N3,4.198095212,4.198095212,4.066441,90.0,90.0,123.1656064,ortho,Amm2,-0.8072201,0.062514452,0.0,Y,Tc,N
mp-989640,Y1 Tc1 N3,7.388381681,7.388381681,6.269962993,72.79971744,72.79971744,82.27238098,mono,C2/c,-0.8444916,0.025242953,0.0,Y,Tc,N
mp-1216018,Y1 Th1 C3,7.298962562,7.298962562,7.298962562,109.4712206,109.4712206,109.4712206,cubic,I2_13,-0.223997519,0.054776611,0.0,Y,Th,C
mp-1342458,Y1 Ti1 O3,6.093029337,6.093029337,12.01894,90.0,90.0,119.9999928,hex_,P6_3cm,-3.605859812,0.05487435,0.0,Y,Ti,O
mp-1436662,Y1 Ti1 O3,3.89302,3.89302,3.89302,90.0,90.0,90.0,cubic,Pm-3m,-3.358017142,0.30271702,0.0,Y,Ti,O
mp-1443298,Y1 Ti1 O3,3.521960146,3.521960146,12.110846,90.0,90.0,120.0000027,hex_,P6_3/mmc,-3.582761354,0.077972808,0.0,Y,Ti,O
mp-4355,Y1 Ti1 O3,5.347706,5.717622,7.702009,90.0,90.0,90.0,ortho,Pnma,-3.602780869,0.057953293,0.0,Y,Ti,O
mp-753995,Y1 Tm1 O3,5.664251,5.922676,8.305271,90.0,90.0,90.0,ortho,Pnma,-3.933321823,0.088650591,4.582,Y,Tm,O
mp-766256,Y1 Tm1 O3,9.0889317,9.0889317,10.49381613,54.73571962,54.73571962,70.53574568,mono,C2,-4.018697118,0.003275295,4.1556,Y,Tm,O
mp-768353,Y1 Tm1 O3,6.383788363,6.383788363,12.699695,90.0,90.0,120.0000038,hex_,P6_3cm,-3.945753291,0.076219122,3.1706,Y,Tm,O
mp-1375509,Y1 V1 O3,6.146660253,6.146660253,12.056513,90.0,90.0,120.0000027,hex_,P6_3cm,-3.184956397,0.080721507,1.1014,Y,V,O
mp-1402500,Y1 V1 O3,3.512669606,3.512669606,12.419869,90.0,90.0,119.9999926,hex_,P6_3/mmc,-3.111695115,0.153982789,0.0,Y,V,O
mp-1504764,Y1 V1 O3,3.863003,3.863003,3.995935,90.0,90.0,90.0,tet,P4/mmm,-2.912386039,0.353291865,0.0,Y,V,O
mp-18883,Y1 V1 O3,5.274392604,5.659848681,7.512776293,89.92957948,90.00384684,90.00254289,ortho,Pnma,-3.265677904,0.0,0.0,Y,V,O
mp-989407,Y1 W1 N3,3.59485,6.01453,6.13574,90.0,90.0,90.0,ortho,Pmc2_1,-1.183013483,0.038582183,1.5151,Y,W,N
mp-989576,Y1 W1 N3,5.64312981,5.64312981,5.643130104,59.32152713,59.32152713,59.32152365,trig,R3c,-1.175655907,0.045939759,1.5404,Y,W,N
mp-989609,Y1 W1 N3,6.84880045,6.84880045,6.07064,90.0,90.0,150.7070176,ortho,Cmcm,-1.199151632,0.022444034,1.1259,Y,W,N
mp-989615,Y1 W1 N3,7.260720607,7.260720607,6.239089099,74.17254931,74.17254931,81.51557641,mono,C2/c,-1.221595666,0.0,2.2798,Y,W,N
mp-989617,Y1 W1 N3,7.848330104,7.848330104,3.76367,90.0,90.0,139.1943685,ortho,Ama2,-1.197259064,0.024336602,1.4128,Y,W,N
mp-989645,Y1 W1 N3,3.64212024,5.715582021,7.93503627,71.74001636,90.0,90.0,mono,P2_1/m,-1.201808497,0.019787169,1.4067,Y,W,N
mp-1369924,Y1 W1 O3,5.546253,5.907121,8.014148,90.0,90.0,90.0,ortho,Pnma,-2.730881395,0.219146677,2.2587,Y,W,O
mp-1375712,Y1 W1 O3,6.215153781,6.215153781,12.631849,90.0,90.0,119.9999977,hex_,P6_3cm,-2.560648016,0.389380055,0.0,Y,W,O
mp-1401965,Y1 W1 O3,3.608579176,3.608579176,12.69004,90.0,90.0,119.9999849,hex_,P6_3/mmc,-2.545540597,0.404487474,0.0,Y,W,O
mp-1402304,Y1 W1 O3,4.103411,4.103411,4.103411,90.0,90.0,90.0,cubic,Pm-3m,-2.146636305,0.803391766,0.0,Y,W,O
mp-1215965,Y1 Zr1 O3,9.078940373,9.078940373,9.078940373,109.5791561,109.4233803,109.4111796,ortho,I2_12_12_1,-3.603229208,0.123909629,0.5552,Y,Zr,O
mp-766243,Y1 Zr1 O3,9.051403481,9.051403481,10.4478815,54.78788823,54.78788823,70.17659657,mono,C2,-3.64530835,0.081830488,0.427,Y,Zr,O
mp-1246464,Zn3 Sb1 N1,5.91422936,6.063679359,6.10398884,120.2201595,90.0,119.187976,ortho,Imma,0.220073129,0.266113633,0.0,Sb,N,Zn
mp-14099,Zn1 Ag1 F3,4.073079,4.073079,4.073079,90.0,90.0,90.0,cubic,Pm-3m,-1.933807049,0.053571894,1.5852,Zn,Ag,F
mp-998537,Zn1 Ag1 F3,6.267512397,6.267512396,6.267512426,51.09539145,51.09539134,51.09540754,trig,R-3,-1.976400066,0.010978876,1.3463,Zn,Ag,F
mp-971700,Zn1 Au1 O3,3.934248,3.934248,3.934248,90.0,90.0,90.0,cubic,Pm-3m,-0.153992089,0.791294254,0.0,Zn,Au,O
mp-971704,Zn1 B1 O3,3.378806,3.378806,3.378806,90.0,90.0,90.0,cubic,Pm-3m,-1.038755997,1.125581286,0.0,Zn,B,O
mp-1378105,Zn1 Bi1 O3,5.590447,5.651786,10.0190241,57.15133302,90.0,90.0,mono,P2_1/c,-1.511590225,0.080627896,0.8808,Zn,Bi,O
mp-971706,Zn1 Bi1 O3,3.911416,3.911416,3.911416,90.0,90.0,90.0,cubic,Pm-3m,-1.211798521,0.3804196,0.0,Zn,Bi,O
mp-9812,Zn1 C1 O3,5.660201746,5.660201979,5.660201416,48.55208898,48.55208757,48.55209382,trig,R-3c,-1.822478181,0.0,3.5639,Zn,C,O
mp-10271,Zn1 Co3 C1,3.72687582,3.72706281,3.72692445,90.0,90.0,90.0,cubic,Pm-3m,-0.002241864,0.020153372,0.0,Zn,C,Co
mp-1369159,Zn1 Co1 O3,4.978133,5.032938,7.286572,90.0,90.0,90.0,ortho,Pnma,-1.205189849,0.17706181,0.0,Zn,Co,O
mp-753026,Zn1 Co1 O3,6.420815165,6.420815165,5.091030032,84.76825136,84.76825136,83.87081622,mono,C2/c,-1.326151463,0.056100196,0.2135,Zn,Co,O
mp-758652,Zn1 Co1 O3,5.390801675,5.390801675,5.390801088,54.53040113,54.53040113,54.53040507,trig,R-3,-1.300174752,0.082076907,0.0,Zn,Co,O
mp-1341277,Zn1 Cr1 O3,5.105534018,5.127049013,7.646973043,90.00792296,90.0093775,89.99868944,ortho,Pnma,-1.839264558,0.139117741,0.0242,Zn,Cr,O
mp-1100778,Zn1 Cu1 O3,3.735142,3.735142,3.735142,90.0,90.0,90.0,cubic,Pm-3m,-0.541100275,0.607842441,0.0,Zn,Cu,O
mp-10266,Zn1 Fe3 C1,3.77289,3.77289,3.77289,90.0,90.0,90.0,cubic,Pm-3m,0.012129933,0.024618005,0.0,Zn,C,Fe
mp-1373518,Zn1 Fe1 O3,5.156405,5.205407,7.588825,90.0,90.0,90.0,ortho,Pnma,-1.418680838,0.161017123,0.0,Zn,Fe,O
mp-755099,Zn1 Fe1 O3,5.497108043,5.497108043,5.497107604,55.65057931,55.65057931,55.65058378,trig,R-3,-1.465996035,0.113701926,0.0,Zn,Fe,O
mp-755535,Zn1 Fe1 O3,6.584160746,6.584160746,5.311600733,84.35940263,84.35940263,85.45456835,mono,C2/c,-1.463861276,0.115836685,0.0,Zn,Fe,O
mp-971733,Zn1 Ga1 O3,3.828184,3.828184,3.828184,90.0,90.0,90.0,cubic,Pm-3m,-1.147975169,0.734074651,0.0,Zn,Ga,O
mp-1016930,Zn1 Ge1 O3,3.721961,3.721961,3.721961,90.0,90.0,90.0,cubic,Pm-3m,-1.410527672,0.61497333,0.0,Zn,Ge,O
mp-1020631,Zn1 Ge1 O3,5.309779935,5.309779935,5.309780042,57.32585723,57.32585723,57.3258547,trig,R3c,-1.894307236,0.131193766,1.3849,Zn,Ge,O
mp-8285,Zn1 Ge1 O3,5.524563003,5.524563003,5.52456282,54.33987945,54.33987945,54.33987931,trig,R-3,-1.966392217,0.059108785,2.1201,Zn,Ge,O
mp-1016926,Zn1 Ir1 O3,3.907016,3.907016,3.907016,90.0,90.0,90.0,cubic,Pm-3m,-0.709951083,0.762944267,0.0,Zn,Ir,O
mp-1379617,Zn1 Mo1 O3,5.313914,5.338543,7.97055,90.0,90.0,90.0,ortho,Pnma,-1.84306678,0.086225978,0.0,Zn,Mo,O
mp-1207389,Zn1 N1 F3,3.996138,3.996138,3.996138,90.0,90.0,90.0,cubic,Pm-3m,-0.570676996,1.091291609,0.0,Zn,N,F
mp-16290,Zn1 Ni3 C1,3.766253,3.766253,3.766253,90.0,90.0,90.0,cubic,Pm-3m,-0.059459465,0.042528749,0.0,Zn,C,Ni
mp-1069270,Zn1 Ni3 N1,3.72701343,3.72701343,3.72701343,90.0,90.0,90.0,cubic,Pm-3m,-0.220545413,0.0,0.0,Zn,N,Ni
mp-1378884,Zn1 Ni1 O3,5.053746,5.156729,7.368083,90.0,90.0,90.0,ortho,Pnma,-1.03197705,0.187397397,0.0,Zn,Ni,O
mp-1016836,Zn1 Os1 O3,3.896879,3.896879,3.896879,90.0,90.0,90.0,cubic,Pm-3m,-0.959266447,0.56313372,0.0,Zn,Os,O
mp-3342,Zn1 P1 S3,6.010460421,6.010460421,7.492588346,82.38528955,82.38528955,119.9964382,mono,C2/m,-0.497086329,0.025522435,1.98,Zn,P,S
mp-1078329,Zn1 Pb1 O3,5.516786621,5.516786621,5.822193786,61.72056132,61.72056132,59.99999255,trig,R3c,-1.473602806,0.022545058,0.0,Zn,Pb,O
mp-1016880,Zn1 Rh1 O3,3.891291,3.891291,3.891291,90.0,90.0,90.0,cubic,Pm-3m,-0.685322465,0.762410017,0.0,Zn,Rh,O
mp-1348382,Zn1 Sb1 O3,8.063739,5.490532,5.5597901,88.33332232,90.0,90.0,mono,P2_1/m,-1.66204427,0.161283417,0.3548,Zn,Sb,O
mp-4682,Zn1 Se1 O3,5.135797,6.004009,7.810489,90.0,90.0,90.0,ortho,Pnma,-1.4402882,0.062141493,3.4442,Zn,Se,O
mp-5338,Zn1 Se1 O3,6.21569912,7.21441768,12.01209078,90.0,90.0,90.0,ortho,Pbca,-1.502429693,0.0,3.9227,Zn,Se,O
mp-1016876,Zn1 Si1 O3,3.542246,3.542246,3.542246,90.0,90.0,90.0,cubic,Pm-3m,-2.114321977,0.580513833,0.0,Zn,Si,O
mp-1020623,Zn1 Si1 O3,5.432333854,5.432333854,5.432334293,52.52246245,52.52246245,52.5224667,trig,R-3,-2.545076481,0.149759329,3.5938,Zn,Si,O
mp-1178612,Zn1 Si1 O3,7.55239864,7.55239864,7.55239864,137.0985361,102.2734498,93.14694167,ortho,Ibam,-2.656469738,0.038366073,3.5718,Zn,Si,O
mp-562182,Zn1 Si1 O3,6.886753997,6.886753997,5.372906616,73.7249308,73.7249308,86.56440031,mono,C2/c,-2.644600209,0.050235601,3.4371,Zn,Si,O
mp-619034,Zn1 Si1 O3,5.336361,9.300853,18.492968,90.0,90.0,90.0,ortho,Pbca,-2.639511697,0.055324113,3.4593,Zn,Si,O
mp-641917,Zn1 Si1 O3,9.312416,5.299315,9.428662393,79.48871617,90.0,90.0,mono,P2_1/c,-2.635991705,0.058844105,3.3367,Zn,Si,O
mp-1016902,Zn1 Sn1 O3,4.028889,4.028889,4.028889,90.0,90.0,90.0,cubic,Pm-3m,-1.267944154,0.712904694,0.0,Zn,Sn,O
mp-13334,Zn1 Sn1 O3,5.659121978,5.659121978,5.65912176,56.42809504,56.42809504,56.4280921,trig,R3c,-1.939425193,0.041423655,1.081,Zn,Sn,O
mp-1337169,Zn1 Sn1 O3,5.380528,5.407724,7.940176,90.0,90.0,90.0,ortho,Pnma,-1.898006614,0.082842234,1.1054,Zn,Sn,O
mp-14628,Zn1 Sn1 O3,5.687614017,5.687614017,5.687614036,56.44175825,56.44175825,56.44176321,trig,R-3,-1.925918268,0.05493058,1.3215,Zn,Sn,O
mp-1093994,Zn1 Sn1 S3,6.860098149,6.860098149,6.860098689,55.93674715,55.93674715,55.93674573,trig,R3c,-0.499850861,0.169033203,0.3588,Zn,Sn,S
mp-16819,Zn1 Te1 O3,6.32906732,7.33928353,12.32774028,90.0,90.0,90.0,ortho,Pbca,-1.632673405,0.000719504,3.6059,Zn,Te,O
mp-1340971,Zn1 W1 O3,5.330486,5.384023,7.940744,90.0,90.0,90.0,ortho,Pnma,-1.849404559,0.088955001,1.8923,Zn,W,O
mp-1427680,Zn1 W1 O3,3.997302339,3.997302339,4.072086,90.0,90.0,91.01825563,ortho,Amm2,-1.457038203,0.481321357,0.0,Zn,W,O
mp-27898,Zr3 Al1 N1,3.36863777,6.016481369,8.99376521,90.0,90.0,106.2572745,ortho,Cmcm,-1.117505014,0.0,0.0,Al,N,Zr
mp-18927,Zr3 Ni1 O1,3.346903,5.718720159,8.838629,90.0,90.0,107.0152866,ortho,Cmcm,-0.977675862,0.404408215,0.0,Ni,O,Zr
mp-1014226,Zr3 Zn1 N1,5.98226859,5.98226859,8.88907579,90.0,90.0,147.4366943,ortho,Cmcm,-1.030142711,0.0,0.0,Zn,N,Zr
mp-1215405,Zr1 Al1 Cr3,6.377127773,5.346767,4.917697,90.0,90.0,65.21499874,ortho,Cmcm,0.113128173,0.33214795,0.0,Zr,Al,Cr
mp-1237224,Zr1 Al1 Cr3,5.899699935,5.899699935,5.279331,90.0,90.0,119.9999993,hex_,P6_3/mmc,0.49678228,0.715802057,0.0,Zr,Al,Cr
mp-972066,Zr1 Al1 O3,3.672301,3.672301,3.672301,90.0,90.0,90.0,cubic,Pm-3m,-2.946253523,0.515989824,0.0,Zr,Al,O
mp-1188026,Zr1 B1 O3,3.448181,3.448181,3.448181,90.0,90.0,90.0,cubic,Pm-3m,-2.084401497,1.162429119,0.0,Zr,B,O
mp-1068661,Zr1 B1 Rh3,4.11326891,4.11326891,4.11325671,90.0,90.0,90.0,cubic,Pm-3m,-0.800629195,0.0,0.0,Zr,B,Rh
mp-1207063,Zr1 B1 Rh3,4.75843,4.75843,4.75843,90.0,90.0,90.0,cubic,Pm-3m,1.763932285,2.56456148,0.0,Zr,B,Rh
mp-1188011,Zr1 Be1 O3,3.469162,3.469162,3.469162,90.0,90.0,90.0,cubic,Pm-3m,-2.867200542,0.662112432,0.6259,Zr,Be,O
mp-1239170,Zr1 Be1 O3,4.116191,4.116191,4.116191,90.0,90.0,90.0,cubic,Pm-3m,-1.898806424,1.63050655,0.0,Zr,Be,O
mp-1016845,Zr1 Cd1 O3,4.159472,4.159472,4.159472,90.0,90.0,90.0,cubic,Pm-3m,-2.481755603,0.344875589,0.0,Zr,Cd,O
mp-1188065,Zr1 Co1 H3,5.512663283,5.512663283,4.36913105,90.0,90.0,143.1796287,ortho,Cmcm,-0.493764214,0.0,0.0,Zr,Co,H
mp-756665,Zr1 Co1 O3,5.033712155,5.414142003,8.396207675,89.99761957,89.95374454,90.00071824,ortho,Pnma,-2.718393305,0.078509807,1.9991,Zr,Co,O
mp-761293,Zr1 Co1 O3,5.419936886,5.703626773,7.815718761,93.8318502,89.6562705,89.69350544,trig,R-3,-2.6998382,0.097064912,0.0,Zr,Co,O
mp-755055,Zr1 Cr1 O3,4.953036,5.382382,9.349989,89.99951005,89.99976789,89.99966773,ortho,Pnma,-2.991101049,0.085932194,1.5603,Zr,Cr,O
mp-677041,Zr1 Cu1 F3,3.39926,5.546500404,19.65150109,95.41928911,91.20517636,105.6883205,tri,P1,-2.437819011,0.601922857,0.4741,Zr,Cu,F
mp-1016871,Zr1 Hg1 O3,4.18501,4.18501,4.18501,90.0,90.0,90.0,cubic,Pm-3m,-2.192400906,0.349792741,0.0,Zr,Hg,O
mp-754513,Zr1 Mn1 O3,5.472075562,5.81228011,5.472013755,118.0757671,119.9984521,61.92016266,trig,R3c,-3.058372139,0.042826421,2.5635,Zr,Mn,O
mp-754980,Zr1 Mn1 O3,5.496104441,5.496020482,5.823815892,90.00097179,61.84462406,60.0009425,trig,R-3,-3.053943193,0.047255367,2.8707,Zr,Mn,O
mp-1246219,Zr1 Mo1 N3,8.568583653,5.869290501,7.950894936,122.2886818,116.28232,84.69724079,tri,P-1,-0.89317324,0.112843735,0.0,Zr,Mo,N
mp-29658,Zr1 Ni1 H3,3.508491179,4.29288545,5.52038354,90.0,108.5284559,90.0,ortho,Cmcm,-0.535800286,0.0,0.0,Zr,Ni,H
mp-1188025,Zr1 Ni1 O3,3.690521,3.690521,3.690521,90.0,90.0,90.0,cubic,Pm-3m,-1.766193799,1.009210974,0.0,Zr,Ni,O
mp-972296,Zr1 Os1 O3,3.926308,3.926308,3.926308,90.0,90.0,90.0,cubic,Pm-3m,-1.231561315,1.459629599,0.0,Zr,Os,O
mp-1068577,Zr1 Pb1 O3,4.208933,4.208933,4.208933,90.0,90.0,90.0,cubic,Pm-3m,-2.793935413,0.082224175,2.2792,Zr,Pb,O
mp-1100803,Zr1 Pb1 O3,4.295244326,8.444227196,8.429317,90.0,90.0,90.52704893,mono,Pm,-2.83973854,0.036421048,2.6291,Zr,Pb,O
mp-20337,Zr1 Pb1 O3,4.276790774,4.276790774,4.176356,90.0,90.0,91.63483789,ortho,Amm2,-2.843258279,0.032901309,2.6727,Zr,Pb,O
mp-542903,Zr1 Pb1 O3,5.978924,8.317035,11.945823,90.0,90.0,90.0,ortho,Pbam,-2.850313608,0.02584598,2.7752,Zr,Pb,O
mp-647557,Zr1 Pb1 O3,6.042341,8.386099,11.956119,90.0,90.0,90.0,ortho,Pba2,-2.845772124,0.030387464,3.2094,Zr,Pb,O
mp-755798,Zr1 Pb1 O3,5.889325,5.92742,8.354309,90.0,90.0,90.0,ortho,Pnma,-2.841214093,0.034945494,2.9213,Zr,Pb,O
mp-20244,Zr1 Pb1 S3,3.802192,9.20157497,14.02088112,90.0,90.0,90.0,ortho,Pnma,-1.419256458,0.002771761,1.2471,Zr,Pb,S
mp-10706,Zr1 Ru3 C1,4.0755165,4.0755165,4.0755165,90.0,90.0,90.0,cubic,Pm-3m,-0.326463062,0.0,0.0,Zr,C,Ru
mp-1183043,Zr1 Si1 O3,3.663473,3.663473,3.663473,90.0,90.0,90.0,cubic,Pm-3m,-2.219989547,1.072800042,0.0,Zr,Si,O
mp-17324,Zr1 Sn1 S3,3.74441614,9.44076215,14.08601102,90.0,90.0,90.0,ortho,Pnma,-1.397017075,0.0,0.9944,Zr,Sn,S
mp-1183045,Zr1 Ti1 O3,3.859099,3.859099,3.859099,90.0,90.0,90.0,cubic,Pm-3m,-2.729424508,0.721928657,0.0,Zr,Ti,O
mp-1183044,Zr1 Tl1 O3,4.212646,4.212646,4.212646,90.0,90.0,90.0,cubic,Pm-3m,-2.45429325,0.234880127,0.0,Zr,Tl,O
mp-1246572,Zr1 W1 N3,6.380903404,7.871530649,5.75067486,94.29900769,92.62872463,108.1538975,tri,P-1,-1.001811556,0.141286392,0.0,Zr,W,N
mp-1016883,Zr1 Zn1 O3,4.143062,4.143062,4.143062,90.0,90.0,90.0,cubic,Pm-3m,-2.246558207,0.757972091,0.0,Zr,Zn,O
mp-505418,Cs1 Dy1 I3,8.428655,8.683553,12.186846,90.0,90.0,90.0,ortho,Pnma,-1.473735767,0.100725295,0.0,Cs,Dy,I
mp-638685,Cs1 Eu1 Br3,8.16822568,8.39819241,11.78891638,90.0,90.0,90.0,ortho,Pnma,-2.293727465,0.0,0.9374,Cs,Eu,Br
mp-1068377,Cs1 Eu1 Cl3,5.63313725,5.6331414,5.6331414,90.0,90.0,90.0,cubic,Pm-3m,-2.491370083,0.010537762,0.6374,Cs,Eu,Cl
mp-1213256,Cs1 Eu1 Cl3,7.84786518,7.96416394,11.21136964,90.0,90.0,90.0,ortho,Pnma,-2.501907845,0.0,0.0,Cs,Eu,Cl
mp-8396,Cs1 Eu1 F3,4.76988464,4.76988464,4.76988464,90.0,90.0,90.0,cubic,Pm-3m,-3.576914554,0.015776124,0.0,Cs,Eu,F
mp-1185550,Cs1 Eu1 O3,4.602523,4.602523,4.602523,90.0,90.0,90.0,cubic,Pm-3m,-1.966817624,0.296035448,0.0,Cs,Eu,O
mp-1079847,Cs1 Fe1 Br3,6.144093,7.621740967,7.621740967,119.999991,90.0,90.0,hex_,P6_3/mmc,-1.247140322,0.121249258,0.0,Cs,Fe,Br
mp-29400,Cs1 Fe1 Cl3,5.848597,7.500080164,7.50008,60.00000072,90.0,90.0,hex_,P6_3/mmc,-1.647120451,0.0,0.0,Cs,Fe,Cl
mp-555302,Cs1 Fe1 F3,6.300873177,6.300873177,14.847482,90.0,90.0,119.9999914,hex_,P6_3/mmc,-2.744665591,0.007480316,3.4247,Cs,Fe,F
mp-558694,Cs1 Fe1 F3,4.31177,4.31177,4.31177,90.0,90.0,90.0,cubic,Pm-3m,-2.438785681,0.313360225,0.0,Cs,Fe,F
mp-562726,Cs1 Ga1 S3,6.467407468,7.65688873,12.64182486,90.0,90.0,107.6289284,mono,P2_1/c,-0.98830594,0.0,2.6472,Cs,Ga,S
mp-510283,Cs1 Ga1 Se3,13.15157149,6.773097371,7.814851754,73.89929473,90.0,90.0,mono,P2_1/c,-0.939400318,0.0,1.8736,Cs,Ga,Se
mp-984082,Cs1 Gd1 O3,4.545455,4.545455,4.545455,90.0,90.0,90.0,cubic,Pm-3m,-2.268186059,0.21978663,0.0,Cs,Gd,O
mp-1068340,Cs1 Ge1 Br3,5.668240864,5.668240864,5.668241398,88.89687629,88.89687629,88.89686456,trig,R3m,-1.448571664,0.0,0.7856,Cs,Ge,Br
mp-570223,Cs1 Ge1 Br3,5.53332714,5.53332714,5.53332714,90.0,90.0,90.0,cubic,Pm-3m,-1.431726192,0.016845472,0.7607,Cs,Ge,Br
mp-642739,Cs1 Ge1 Br3,5.78863072,5.78863072,5.728079177,88.19674636,88.19674636,90.40477709,mono,Cm,-1.447947274,0.00062439,1.4434,Cs,Ge,Br
mp-22988,Cs1 Ge1 Cl3,5.461891124,5.461891124,5.461891073,89.54623145,89.54623145,89.54621701,trig,R3m,-1.712059219,0.0,2.1535,Cs,Ge,Cl
mp-28377,Cs1 Ge1 I3,8.706732698,6.128081833,6.065933978,92.17638737,135.8628261,86.96676119,trig,R3m,-1.071458284,0.0,0.9905,Cs,Ge,I
mp-642690,Cs1 Ge1 I3,6.257706107,6.257706107,5.988627913,88.57680362,88.57680362,92.31435517,mono,Cm,-1.06281851,0.008639774,1.1901,Cs,Ge,I
mp-984051,Cs1 Ge1 O3,4.064553,4.064553,4.064553,90.0,90.0,90.0,cubic,Pm-3m,-1.283956636,0.598347515,0.0,Cs,Ge,O
mp-1194175,Cs1 Hg1 Br3,12.63100851,12.63100851,14.50936956,56.78275534,56.78275534,37.30797283,mono,C2/c,-1.346983956,0.003369847,1.9018,Cs,Hg,Br
mp-27718,Cs1 Hg1 Br3,5.695005,5.695005,5.695005,90.0,90.0,90.0,cubic,Pm-3m,-1.308831023,0.04152278,0.0,Cs,Hg,Br
mp-1197432,Cs1 Hg1 Cl3,15.707882,9.552009,10.96885994,55.08005614,90.0,90.0,mono,P2_1/c,-1.536836756,0.018041189,0.9505,Cs,Hg,Cl
mp-1228834,Cs1 Hg1 Cl3,5.400211799,5.400211799,5.400211809,89.83657629,89.83657629,89.83658394,trig,R3m,-1.520880266,0.033997679,0.0,Cs,Hg,Cl
mp-29845,Cs1 Hg1 Cl3,13.3873208,13.38700318,9.469666016,90.00155691,89.99357249,120.0001367,trig,P3_2,-1.554877946,0.0,2.0,Cs,Hg,Cl
mp-570591,Cs1 Hg1 Cl3,5.402792,5.402792,5.402792,90.0,90.0,90.0,cubic,Pm-3m,-1.522037546,0.032840399,0.0,Cs,Hg,Cl
mp-675010,Cs1 Hg1 Cl3,6.430336,6.430336,8.835192,90.0,90.0,90.0,tet,P-42_1m,-1.475549598,0.079328347,2.0663,Cs,Hg,Cl
mp-561947,Cs1 Hg1 F3,4.59544972,4.59544972,4.59544972,90.0,90.0,90.0,cubic,Pm-3m,-2.250120334,0.0,0.7228,Cs,Hg,F
mp-28295,Cs1 I1 O3,4.669043714,6.601774174,6.61473721,90.0,90.0,89.99353567,ortho,Pmn2_1,-1.374576067,0.0,3.0912,Cs,I,O
mp-613384,Cs1 I1 O3,4.590332,4.590332,4.590332,90.0,90.0,90.0,cubic,Pm-3m,0.591844738,1.966420805,0.0,Cs,I,O
mp-1112338,Cs1 In1 Br3,8.145606524,8.145606524,8.145606524,60.0,60.0,60.0,cubic,Fm-3m,-1.548122138,0.0,1.3782,Cs,In,Br
mp-2649045,Cs1 In1 Br3,5.69175635,5.69175635,5.68992117,90.0,90.0,90.0,cubic,Pm-3m,-1.523732621,0.024389517,0.0,Cs,In,Br
mp-998323,Cs1 In1 Br3,5.774009,5.774009,5.774409,90.0,90.0,90.0,tet,P4mm,-1.52912754,0.018994598,0.0,Cs,In,Br
mp-1112961,Cs1 In1 Cl3,7.79253374,7.79253374,7.79253374,60.0,60.0,60.0,cubic,Fm-3m,-1.645168885,0.014203414,1.7757,Cs,In,Cl
mp-1112960,Cs1 In1 F3,6.636698438,6.636698438,6.636698438,60.0,60.0,60.0,cubic,Fm-3m,-2.707859579,0.0,3.0609,Cs,In,F
mp-998322,Cs1 In1 F3,4.674301,4.674301,4.674301,90.0,90.0,90.0,cubic,Pm-3m,-2.601450935,0.106408644,0.0,Cs,In,F
mp-1112643,Cs1 In1 I3,8.811141635,8.811141635,8.811141635,60.0,60.0,60.0,cubic,Fm-3m,-1.151489166,0.021831326,0.0565,Cs,In,I
mp-998314,Cs1 In1 I3,6.09660249,6.130694604,6.123509997,89.98627588,90.0,90.0,mono,Pm,-1.15966596,0.013654532,0.0,Cs,In,I
mp-998430,Cs1 In1 I3,11.00212174,10.85624116,11.05191257,92.85821202,111.3879401,101.0574875,tri,P-1,-1.155479995,0.017840498,1.4872,Cs,In,I
mp-984356,Cs1 Ir1 O3,4.093677,4.093677,4.093677,90.0,90.0,90.0,cubic,Pm-3m,-1.050270067,0.211369962,0.0,Cs,Ir,O
mp-984357,Cs1 K1 O3,4.493182,4.493182,4.493182,90.0,90.0,90.0,cubic,Pm-3m,-0.413180178,0.689797919,0.0,Cs,K,O
mp-1183918,Cs1 La1 O3,4.765355,4.765355,4.765355,90.0,90.0,90.0,cubic,Pm-3m,-2.226565624,0.251665629,0.0,Cs,La,O
mp-29750,Cs1 Mg1 Br3,7.64834679,7.648346799,6.50988533,90.0,90.0,120.0000045,hex_,P6_3/mmc,-1.975091575,0.0,4.0445,Cs,Mg,Br
mp-23004,Cs1 Mg1 Cl3,7.29291267,7.292912737,6.18159097,90.0,90.0,119.9999997,hex_,P6_3/mmc,-2.315563951,0.0,5.1261,Cs,Mg,Cl