mp_id,formula,sites,composition,a_edge (angstrom),b_edge (angstrom),c_edge (angstrom),alpha_ang (deg),beta_ang (deg),gamma_ang (deg),crystal_system,space_group,total_magnetisation (bohr),energy_per_atom (eV/atom),formation_energy (eV/atom),energy_above_hull (eV/atom),stable,density (g/cc),band_gap (eV),direct_bandgap,volume (cubic-angstrom),bulk_modulus (GPa),shear_modulus (GPa)
mp-27193,RbIO3,5,Rb1 I1 O3,4.519323495,4.519324409,4.519323165,89.71652165,89.71650902,89.71651552,trig,R3m,0,-4.842215484,-1.372529544,0,TRUE,4.684210199,2.8369,TRUE,92.30058405,,
mp-1110737,RbInBr3,10,Rb1 In1 Br3,8.097740359,8.097740359,8.097740359,60,60,60,cubic,Fm-3m,0,-3.229154639,-1.499045155,0.025192821,FALSE,3.891822754,1.3264,FALSE,375.4711262,,
mp-998194,RbInBr3,5,Rb1 In1 Br3,5.735617186,5.735617186,5.73371368,89.92559992,89.92559992,90.07227499,mono,Cm,0.0007017,-3.213021126,-1.482911642,0.041326334,FALSE,3.873507171,0,FALSE,188.6232564,,
mp-998800,RbInBr3,10,Rb1 In1 Br3,8.082918591,8.082918591,8.082919167,60.07849157,60.07849157,60.0784894,trig,R3c,0.0003359,-3.219485888,-1.489376404,0.034861572,FALSE,3.906323057,0,FALSE,374.0773743,,
mp-1114001,RbInCl3,10,Rb1 In1 Cl3,7.736445266,7.736445266,7.736445266,60,60,60,cubic,Fm-3m,0,-3.626095887,-1.769032328,0,TRUE,3.110321793,1.6773,FALSE,327.4231438,,
mp-998195,RbInCl3,5,Rb1 In1 Cl3,5.451542177,5.452959756,5.453123337,90.29383279,90.13918602,90.03015875,mono,Cm,0.000947,-3.589622518,-1.732558959,0.036473369,FALSE,3.141194063,0,FALSE,162.1025826,,
mp-998204,RbInCl3,5,Rb1 In1 Cl3,5.452333292,5.452333292,5.452959709,89.83798278,89.83798278,90.13919047,tet,P4mm,0.001062,-3.58963095,-1.732567391,0.036464937,FALSE,3.141176824,0,FALSE,162.1034722,,
mp-998753,RbInCl3,10,Rb1 In1 Cl3,7.696961767,7.696961767,7.696961226,60.01451065,60.01451065,60.01451179,trig,R3c,0.0002184,-3.593625189,-1.73656163,0.032470698,FALSE,3.157394813,0,FALSE,322.5416523,,
mp-1110662,RbInF3,10,Rb1 In1 F3,6.538670726,6.538670726,6.538670726,60,60,60,cubic,Fm-3m,0,-4.627204056,-2.732375112,0.009161325,FALSE,4.322484246,2.4848,FALSE,197.6757546,,
mp-1147705,RbInH3,10,Rb1 In1 H3,6.257462264,6.257462264,6.257462264,60,60,60,cubic,Fm-3m,0.0002466,-2.831721673,-0.046680247,0.050604781,FALSE,3.89724135,0,FALSE,173.2525837,,
mp-1114161,RbInI3,10,Rb1 In1 I3,8.78093969,8.78093969,8.78093969,60,60,60,cubic,Fm-3m,0.0008572,-2.760979151,-1.098630019,0.056383545,FALSE,4.030386077,0,FALSE,478.749116,,
mp-975299,RbInO3,5,Rb1 In1 O3,4.354854,4.354854,4.354854,90,90,90,cubic,Pm-3m,1.999988,-4.96813082,-1.251412654,0.293220448,FALSE,4.992028228,0,FALSE,82.58873203,"{'voigt': 74.482, 'reuss': 74.482, 'vrh': 74.482}","{'voigt': 19.267, 'reuss': 2.834, 'vrh': 11.05}"
mp-975284,RbIrO3,5,Rb1 Ir1 O3,4.009203,4.009203,4.009203,90,90,90,cubic,Pm-3m,1.2001501,-6.137988264,-1.205418011,0.044315119,FALSE,8.39208835,0,FALSE,64.44276112,"{'voigt': 141.653, 'reuss': 141.653, 'vrh': 141.653}","{'voigt': 79.735, 'reuss': 77.856, 'vrh': 78.796}"
mp-975291,RbLiO3,5,Rb1 Li1 O3,4.179392,4.179392,4.179392,90,90,90,cubic,Pm-3m,4.0000864,-4.24320535,-0.696537359,0.546886913,FALSE,3.19373249,0,FALSE,73.00276698,,
mp-27208,RbMgCl3,20,Rb1 Mg1 Cl3,7.09539857,7.09539909,11.86949791,90,90,120.0000023,hex_,P6_3/mmc,2.00E-07,-3.908508912,-2.277186098,0,TRUE,2.774030075,4.7503,TRUE,517.5074354,,
mp-662499,RbMgCl3,30,Rb1 Mg1 Cl3,7.095199629,7.095199755,17.60876029,89.99999958,89.99999952,119.9992818,hex_,P6_3/mmc,0,-3.90693355,-2.275610736,0.001575362,FALSE,2.804963513,4.6099,TRUE,767.700462,,
mp-541813,RbMgF3,30,Rb1 Mg1 F3,5.822173347,5.822173752,14.18328167,89.99999343,90.00000791,119.9981098,hex_,P6_3/mmc,0,-5.172563004,-3.503474806,0.005790626,FALSE,3.990498651,6.6666,TRUE,416.3762264,,
mp-559523,RbMgF3,30,Rb1 Mg1 F3,6.906875933,6.906875933,14.358365,90,90,119.9999994,hex_,P6_3/mmc,0.0028227,-4.609099075,-2.940010877,0.569254556,FALSE,2.801006777,2.2015,TRUE,593.1969831,,
mp-8402,RbMgF3,5,Rb1 Mg1 F3,4.056934,4.056934,4.056934,90,90,90,cubic,Pm-3m,0,-5.17835363,-3.509265432,0,TRUE,4.147324483,6.9384,FALSE,66.77191431,"{'voigt': 66.107, 'reuss': 66.107, 'vrh': 66.107}","{'voigt': 42.375, 'reuss': 41.505, 'vrh': 41.94}"
mp-23738,RbMgH3,30,Rb1 Mg1 H3,5.886684253,5.886683969,14.28385677,90.00000007,90.00000047,119.9997561,hex_,P6_3/mmc,0,-2.884899171,-0.32559849,0,TRUE,2.621668556,2.5405,FALSE,428.6656152,,
mp-1186884,RbMgO3,5,Rb1 Mg1 O3,4.194742,4.194742,4.194742,90,90,90,cubic,Pm-3m,3,-4.88328735,-1.39230993,0.406369916,FALSE,3.549445501,0,FALSE,73.81009484,,
mp-29763,RbMnBr3,10,Rb1 Mn1 Br3,7.50776348,7.507771222,6.47950108,90,90,120.0000291,hex_,P6_3/mmc,9.9999991,-4.54205504,-1.531377246,0.001735939,FALSE,3.991201625,0,FALSE,316.2959884,,
mp-568231,RbMnBr3,30,Rb1 Mn1 Br3,12.99505335,12.9951733,6.53335065,90.00063838,89.99892932,119.9949439,hex_,P6_3cm,29.9999999,-4.543790979,-1.533113185,0,TRUE,3.963416746,1.2358,TRUE,955.5399879,,
mp-569309,RbMnCl3,30,Rb1 Mn1 Cl3,7.155895928,7.155895691,17.79950594,90.00000314,90.0000048,119.9979055,hex_,P6_3/mmc,29.9999996,-4.961344522,-1.823712653,0,TRUE,3.114640126,1.3133,FALSE,789.361176,,
mp-558749,RbMnF3,5,Rb1 Mn1 F3,4.23247214,4.23247214,4.23247214,90,90,90,cubic,Pm-3m,5.0000009,-6.190304176,-3.014906923,0,TRUE,4.323308649,2.9437,FALSE,75.81974583,,
mp-975346,RbMnO3,5,Rb1 Mn1 O3,4.039265,4.039265,4.039265,90,90,90,cubic,Pm-3m,1.9943766,-6.375374634,-1.378088158,0.379636239,FALSE,4.747142635,0,FALSE,65.90328142,,
mp-975292,RbMoO3,5,Rb1 Mo1 O3,4.052919,4.052919,4.052919,90,90,90,cubic,Pm-3m,1.0001833,-7.286910316,-1.952896877,0.193318935,FALSE,5.722029564,0,FALSE,66.57386524,,
mp-1219584,RbNO3,5,Rb1 N1 O3,4.75126996,4.751269516,4.751269755,72.80689611,72.80690648,72.80690225,trig,R3m,0.0001497,-6.253632308,-1.421093342,0,TRUE,2.569493494,3.0415,TRUE,95.30445599,,
mp-13658,RbNO3,10,Rb1 N1 O3,4.8902325,5.31012834,5.77135798,90,90,90,ortho,Pmmn,0,-6.236083325,-1.403544359,0.017548983,FALSE,3.267970943,3.1172,FALSE,149.8692515,,
mp-38220,RbNO3,10,Rb1 N1 O3,9.043921902,6.051993933,6.051993933,60,47.99633671,47.99633671,trig,R-3c,0,-6.230497723,-1.397958757,0.023134585,FALSE,2.689609685,3.0358,TRUE,182.0964439,,
mp-5073,RbNO3,45,Rb1 N1 O3,10.33967689,10.3396764,7.32885327,90,90,120.0000006,trig,P3_1,0.7694436,-6.236590271,-1.404051305,0.017042037,FALSE,3.248049719,3.2482,FALSE,678.5479925,,
mp-614951,RbNO3,45,Rb1 N1 O3,11.6606432,11.6606432,7.391708,90,90,119.9999954,trig,P3_2,0.0021172,-6.214186575,-1.381647608,0.039445733,FALSE,2.532111184,3.1337,FALSE,870.4031761,,
mp-752446,RbNO3,5,Rb1 N1 O3,4.708980741,4.708980741,4.708980346,81.70017533,81.70017533,81.70017263,trig,R32,0,-6.232598406,-1.40005944,0.021033902,FALSE,2.41439597,2.9815,FALSE,101.426685,,
mp-975274,RbNaO3,5,Rb1 Na1 O3,4.527717,4.527717,4.527717,90,90,90,cubic,Pm-3m,4.0000746,-3.935398672,-0.502171099,0.600423637,FALSE,2.798999739,0,FALSE,92.81920018,,
mp-1075911,RbNbO3,5,Rb1 Nb1 O3,4.098856,4.098856,4.098856,90,90,90,cubic,Pm-3m,0.000371,-7.941458902,-2.756314476,0.082736542,FALSE,5.45864123,1.3563,FALSE,68.86332418,,
mp-3283,RbNbO3,20,Rb1 Nb1 O3,5.145686136,8.4724441,8.991564092,114.2100765,93.50123908,94.76049878,tri,P-1,0,-8.024195444,-2.839051019,0,TRUE,4.243448232,3.3093,FALSE,354.3346449,"{'voigt': 43.979, 'reuss': 36.434, 'vrh': 40.207}","{'voigt': 20.541, 'reuss': 16.667, 'vrh': 18.604}"
mp-756063,RbNbO3,20,Rb1 Nb1 O3,6.526222077,6.526222077,8.332043643,86.59608804,86.59608804,82.93079755,mono,C2/m,0.0002853,-7.999876077,-2.814731651,0.024319368,FALSE,4.28290921,2.8197,FALSE,351.06995,"{'voigt': 67.347, 'reuss': 58.504, 'vrh': 62.925}","{'voigt': 24.638, 'reuss': 10.056, 'vrh': 17.347}"
mp-27409,RbNiBr3,10,Rb1 Ni1 Br3,7.3562059,7.356206957,6.23210219,90,90,120.0000034,hex_,P6_3/mmc,3.9999999,-3.600229622,-1.265927551,0,TRUE,4.365096885,0.4723,FALSE,292.0606172,,
mp-23486,RbNiCl3,10,Rb1 Ni1 Cl3,6.97274846,6.972747066,5.88951826,90,90,119.9999969,hex_,P6_3/mmc,4.0000002,-4.01275916,-1.551503014,0,TRUE,3.355084902,0.7089,FALSE,247.980955,,
mp-556488,RbNiF3,30,Rb1 Ni1 F3,5.832151668,5.832153553,14.27342523,89.99999687,89.99999394,119.9990536,hex_,P6_3/mmc,11.999999,-5.11621333,-2.617191799,0,TRUE,4.766652436,4.6929,TRUE,420.4561769,,
mp-975373,RbNiO3,5,Rb1 Ni1 O3,4.051925,4.051925,4.051925,90,90,90,cubic,Pm-3m,3.870179,-4.971713716,-0.650802962,0.419787335,FALSE,4.796523065,0,FALSE,66.52489447,,
mp-975288,RbNpO3,5,Rb1 Np1 O3,4.305523938,4.305542684,4.304774406,90.28442337,90.28837595,89.67589711,cubic,Pm-3m,2,-8.831984582,-3.077545228,0.012339059,FALSE,7.709227978,0,FALSE,79.79700012,"{'voigt': 133.382, 'reuss': 133.382, 'vrh': 133.382}","{'voigt': 73.18, 'reuss': 66.48, 'vrh': 69.83}"
mp-1040467,RbOsO3,5,Rb1 Os1 O3,3.974097,3.974097,3.974097,90,90,90,cubic,Pm-3m,0.0017219,-6.930602086,-1.520245183,0.090559169,FALSE,8.563889218,0,FALSE,62.7646902,"{'voigt': 197.673, 'reuss': 197.673, 'vrh': 197.673}","{'voigt': 104.985, 'reuss': 104.981, 'vrh': 104.983}"
mp-998602,RbOsO3,10,Rb1 Os1 O3,5.469656641,5.483280644,6.927613491,66.78673358,66.84335152,59.91492004,trig,R-3,1.8154539,-7.021161255,-1.610804351,0,TRUE,6.712720462,0,FALSE,160.1466519,,
mp-1179733,RbPO3,60,Rb1 P1 O3,18.857954,7.534718,9.14706901,84.3767658,90,90,mono,P2_1/c,11.9993545,-5.750318731,-1.502340608,1.178719974,FALSE,2.53331172,0.0949,TRUE,1293.44674,,
mp-4135,RbPO3,20,Rb1 P1 O3,4.23479786,6.481794279,13.12275816,66.49759589,90,90,mono,P2_1/c,0,-6.929038705,-2.681060582,0,TRUE,3.306534152,5.1119,TRUE,330.3261196,,
mp-548658,RbPO3,10,Rb1 P1 O3,7.348147027,7.348147027,4.862531,90,90,131.1772254,ortho,Cmcm,0.0017223,-6.877258203,-2.62928008,0.051780502,FALSE,2.763499679,4.5235,TRUE,197.6180066,"{'voigt': 27.764, 'reuss': 19.143, 'vrh': 23.454}","{'voigt': 17.122, 'reuss': 11.918, 'vrh': 14.52}"
mp-616587,RbPO3,40,Rb1 P1 O3,4.60648002,11.86328964,14.51769467,63.62141224,90,90,mono,P2_1/c,0,-6.926567784,-2.678589662,0.00247092,FALSE,3.073442794,5.0926,TRUE,710.7564179,,
mp-9138,RbPO3,20,Rb1 P1 O3,4.51776972,6.09760948,12.75847234,90,90,90,ortho,Pnma,0,-6.917475896,-2.669497774,0.011562808,FALSE,3.107660409,4.7607,FALSE,351.4652349,,
mp-556953,RbPS3,10,Rb1 P1 S3,7.024475613,7.257306805,7.257306958,72.93797437,61.0557326,61.05572351,ortho,Immm,0,-4.741105192,-0.978887932,0,TRUE,2.50004079,1.8376,FALSE,282.4684458,"{'voigt': 9.038, 'reuss': 8.363, 'vrh': 8.701}","{'voigt': 4.641, 'reuss': 2.13, 'vrh': 3.385}"
mp-571464,RbPSe3,30,Rb1 P1 Se3,7.474135477,7.473874796,19.36625941,89.99932197,90.00194187,119.9973452,trig,P3_121,0,-4.181909744,-0.805161338,0,TRUE,3.75729861,1.123,FALSE,936.9033196,,
mp-1206844,RbPaO3,5,Rb1 Pa1 O3,4.38112501,4.38112501,4.38112501,90,90,90,cubic,Pm-3m,0,-8.604355962,-3.530613109,0,TRUE,7.197670045,3.001,FALSE,84.09243656,,
mp-998176,RbPbBr3,5,Rb1 Pb1 Br3,5.985084363,5.985084363,5.980424008,89.94260671,89.94260671,90.06771908,mono,Cm,0.0006075,-3.493827592,-1.573023442,0.039393365,FALSE,4.126661791,1.7508,TRUE,214.2258079,,
mp-998603,RbPbBr3,10,Rb1 Pb1 Br3,4.458387341,7.676617825,11.22836159,90,90,106.8458384,ortho,Cmcm,0,-3.533220957,-1.612416808,0,TRUE,4.807117123,2.8211,FALSE,367.8035852,,
mp-1209191,RbPbCl3,5,Rb1 Pb1 Cl3,5.723076,5.723076,5.723076,90,90,90,cubic,Pm-3m,0.0023644,-3.876167596,-1.828409371,0.03835282,FALSE,3.534781906,2.1963,TRUE,187.4513358,,
mp-998604,RbPbCl3,10,Rb1 Pb1 Cl3,4.276082772,7.340583959,10.6939405,90.00075316,89.99625657,106.8102266,ortho,Cmcm,0,-3.914520416,-1.866762192,0,TRUE,4.124138005,3.263,FALSE,321.3275546,,
mp-998605,RbPbCl3,5,Rb1 Pb1 Cl3,5.717154663,5.717154663,5.713945627,89.90838683,89.90838683,90.07350049,mono,Cm,0.0006274,-3.87638783,-1.828629605,0.038132586,FALSE,3.547779715,2.1948,TRUE,186.7645804,,
mp-1173075,RbPbF3,10,Rb1 Pb1 F3,11.09595818,6.840403326,8.16558,53.35437831,42.61618935,35.80034673,ortho,Ima2,0.0001728,-4.744235088,-2.658711479,0.121696427,FALSE,4.730691528,3.4164,FALSE,245.4732397,,
mp-1179717,RbPbF3,20,Rb1 Pb1 F3,4.741703412,4.764575094,20.67693634,89.19034702,104.7699298,90.08098369,tri,P-1,0.0003589,-4.850092279,-2.764568669,0.015839237,FALSE,5.142226455,4.017,TRUE,451.6557897,,
mp-1540546,RbPbF3,10,Rb1 Pb1 F3,9.361063103,6.446879579,6.791094373,58.21800898,43.5242133,46.49083906,trig,R3c,0,-4.865931515,-2.780407906,0,TRUE,5.681608064,3.8195,FALSE,204.3889973,,
mp-21043,RbPbF3,5,Rb1 Pb1 F3,4.861716,4.861716,4.861716,90,90,90,cubic,Pm-3m,0.0001031,-4.831842524,-2.746318915,0.034088991,FALSE,5.05277584,3.0445,TRUE,114.9128926,,
mp-605350,RbPbF3,20,Rb1 Pb1 F3,4.685139,4.948026556,17.83619439,90.98935837,95.20667924,89.91413782,tri,P-1,0.0013513,-4.810492064,-2.724968454,0.055439452,FALSE,5.641083308,3.996,FALSE,411.7145987,,
mp-674508,RbPbF3,10,Rb1 Pb1 F3,6.49086705,6.49086705,6.390391423,63.32526142,63.32526142,63.48656039,mono,Cc,0,-4.865671278,-2.780147669,0.000260237,FALSE,5.675287896,3.7853,FALSE,204.6166109,,
mp-23517,RbPbI3,20,Rb1 Pb1 I3,4.82902567,10.46796539,17.5311371,90,90,90,ortho,Pnma,0,-3.088990618,-1.23594682,0,TRUE,5.047056939,2.4518,FALSE,886.2002704,,
mp-1385732,RbPdBr3,5,Rb1 Pd1 Br3,5.296201,5.289077,5.292232488,89.95704088,90,90,ortho,Amm2,0.0002115,-3.435351548,-1.22110045,0.007196886,FALSE,4.834451317,0,FALSE,148.2460536,,
mp-998174,RbPdBr3,5,Rb1 Pd1 Br3,5.296201362,5.292232081,5.289076872,90.04296173,89.97922295,90.01098389,mono,Pm,3.38E-05,-3.435340548,-1.22108945,0.007207886,FALSE,4.834451881,0,FALSE,148.2460363,,
mp-998173,RbPdCl3,5,Rb1 Pd1 Cl3,4.94767089,4.94767089,4.94767089,90,90,90,cubic,Pm-3m,0.0026901,-3.77837043,-1.437165257,0.043305495,FALSE,4.089050553,0,FALSE,121.1162485,,
mp-9060,RbPdF3,5,Rb1 Pd1 F3,4.345685,4.345685,4.345685,90,90,90,cubic,Pm-3m,7.18E-05,-4.498189628,-2.119219071,0.043470065,FALSE,5.035813275,0,FALSE,82.06816614,"{'voigt': 67.565, 'reuss': 67.565, 'vrh': 67.565}","{'voigt': 24.051, 'reuss': 21.599, 'vrh': 22.825}"
mp-975255,RbPdO3,5,Rb1 Pd1 O3,4.128309,4.128309,4.128309,90,90,90,cubic,Pm-3m,2.185399,-4.974970446,-0.774110666,0.155602799,FALSE,5.661576907,0,FALSE,70.35850277,"{'voigt': 95.483, 'reuss': 95.483, 'vrh': 95.483}","{'voigt': 47.696, 'reuss': 47.421, 'vrh': 47.559}"
mp-975236,RbPtO3,5,Rb1 Pt1 O3,4.105072,4.105072,4.105072,90,90,90,cubic,Pm-3m,1.7383094,-5.268046396,-0.888936314,0.160222984,FALSE,7.886571278,0,FALSE,69.17709751,,
mp-1186888,RbPuO3,5,Rb1 Pu1 O3,4.28283457,4.28281789,4.28287974,90,90,90,cubic,Pm-3m,2.9999998,-8.9978979,-2.885427986,0.022020938,FALSE,7.978663495,0,FALSE,78.55915213,,
mp-975216,RbReO3,5,Rb1 Re1 O3,3.984062,3.984062,3.984062,90,90,90,cubic,Pm-3m,0.0002484,-7.627734916,-1.973228657,0.14681071,FALSE,8.394151231,0,FALSE,63.23802019,"{'voigt': 195.873, 'reuss': 195.873, 'vrh': 195.873}","{'voigt': 128.801, 'reuss': 124.839, 'vrh': 126.82}"
mp-1186897,RbRhO3,5,Rb1 Rh1 O3,4.042708,4.042708,4.042708,90,90,90,cubic,Pm-3m,2.3490745,-5.74644687,-1.108701878,0.115868383,FALSE,5.940555901,0,FALSE,66.07194958,,
mp-975208,RbRuO3,5,Rb1 Ru1 O3,3.978586,3.978586,3.978586,90,90,90,cubic,Pm-3m,0.0416099,-6.45818619,-1.438422265,0.199182718,FALSE,6.184041013,0,FALSE,62.97762089,"{'voigt': 155.247, 'reuss': 155.247, 'vrh': 155.247}","{'voigt': 87.334, 'reuss': 83.815, 'vrh': 85.574}"
mp-3404,RbSO3,30,Rb1 S1 O3,10.12309926,10.12310853,6.453717471,89.99853468,90.00193683,120.0003818,trig,P321,0,-6.069781628,-2.077226297,0.007402476,FALSE,2.879475506,5.0206,FALSE,572.7515827,,
mp-975206,RbSbO3,5,Rb1 Sb1 O3,4.09054,4.09054,4.09054,90,90,90,cubic,Pm-3m,5.40E-05,-5.789894704,-1.799211039,0.096659122,FALSE,6.192016145,0,FALSE,68.4450321,"{'voigt': 117.294, 'reuss': 117.294, 'vrh': 117.294}","{'voigt': 106.173, 'reuss': 105.62, 'vrh': 105.897}"
mp-1206561,RbScBr3,10,Rb1 Sc1 Br3,6.13981006,7.750782915,7.751524807,120.0033702,89.99956561,90.00103866,hex_,P6_3/mmc,4.70E-06,-4.418660071,-1.973891515,0.013491091,FALSE,3.848013174,0,FALSE,319.4504706,,
mp-1206320,RbScCl3,10,Rb1 Sc1 Cl3,7.311757677,7.311745027,5.89839408,90.00001326,89.99993037,120.0000509,hex_,P6_3/mmc,2.00E-07,-4.874307268,-2.302584637,0,TRUE,2.879533009,0,FALSE,273.0907702,,
mp-998299,RbSeBr3,10,Rb1 Se1 Br3,5.374461233,7.619161673,8.72161199,90,90,97.06039085,mono,P2_1/m,0,-2.973246042,-1.095789011,0.050724697,FALSE,3.786845357,1.2364,FALSE,354.4321793,,
mp-998366,RbSeBr3,5,Rb1 Se1 Br3,5.49626467,5.49626467,5.48582805,90,90,90,tet,P4mm,1.0092626,-2.96387529,-1.086418259,0.060095449,FALSE,4.04951725,0,FALSE,165.7209699,,
mp-725554,RbSeO3,10,Rb1 Se1 O3,5.505499,5.771568494,7.390523039,107.5653421,107.9424738,92.66571236,tri,P-1,1.9994113,-5.297730111,-1.433664398,0.174372124,FALSE,3.352023999,0.0368,FALSE,210.4648844,,
mp-1206676,RbSmI3,10,Rb1 Sm1 I3,8.614080203,8.614080203,11.948769,90,90,151.0140073,ortho,Cmcm,0.8233011,-3.572161785,-1.517930175,0.056198056,FALSE,4.765632895,0,FALSE,429.6557405,,
mp-975207,RbSmO3,5,Rb1 Sm1 O3,4.576909,4.576909,4.576909,90,90,90,cubic,Pm-3m,1.9999635,-6.306784188,-2.198183544,0.271069491,FALSE,4.91568948,0,FALSE,95.87752909,,
mp-998157,RbSnBr3,5,Rb1 Sn1 Br3,5.877776901,5.876641047,5.967052679,88.95795477,87.43691013,90.26964235,tri,P1,0,-3.459169133,-1.478980026,0.044643826,FALSE,3.580430779,0.601,TRUE,205.8680644,,
mp-998778,RbSnBr3,20,Rb1 Sn1 Br3,4.51432928,9.33432247,16.63637103,90,90,90,ortho,Pnma,0,-3.503812959,-1.523623852,0,TRUE,4.205809743,2.5418,FALSE,701.0268168,,
mp-998156,RbSnCl3,5,Rb1 Sn1 Cl3,5.598741,5.598741,5.612905749,89.40499047,89.40499047,90.0388011,mono,Cm,0.0020158,-3.86719406,-1.760050879,0.02273852,FALSE,2.93116751,0.9861,TRUE,175.9225586,,
mp-998611,RbSnCl3,10,Rb1 Sn1 Cl3,7.846385026,7.846385026,7.84638508,61.22915159,61.22915159,61.22915282,trig,R3c,0.0006462,-3.88993258,-1.782789398,0,TRUE,2.9380281,2.3264,TRUE,351.0235236,,
mp-1198796,RbSnF3,80,Rb1 Sn1 F3,13.924065,8.412632,15.30846374,82.11373068,90,90,mono,P2_1/c,0.0003782,-4.930896662,-2.785988096,0,TRUE,3.906562456,3.6899,TRUE,1776.24391,,
mp-998193,RbSnF3,5,Rb1 Sn1 F3,4.609908,4.639338083,5.300348898,96.68175125,94.43941503,89.56276906,tri,P1,0.000152,-4.88869977,-2.743791204,0.042196892,FALSE,3.863580122,3.4053,FALSE,112.2502891,,
mp-998620,RbSnF3,10,Rb1 Sn1 F3,6.522643338,6.522643332,6.522642942,62.42967913,62.42967916,62.429674,trig,R-3,0,-4.918072841,-2.773164275,0.012823821,FALSE,4.193136629,4.0234,TRUE,206.8561194,,
mp-29405,RbSnI3,20,Rb1 Sn1 I3,4.75301072,10.40655468,17.43905401,90,90,90,ortho,Pnma,0,-3.064690359,-1.152261604,0,TRUE,4.503866369,2.0077,FALSE,862.5786152,,
mp-1186893,RbSnO3,5,Rb1 Sn1 O3,4.200596,4.200596,4.200596,90,90,90,cubic,Pm-3m,1.0000062,-5.616609184,-1.649811396,0.185850815,FALSE,5.649631292,0,FALSE,74.1195448,,
mp-1209047,RbSrCl3,5,Rb1 Sr1 Cl3,5.696304,5.696304,5.696304,90,90,90,cubic,Pm-3m,0.0005875,-4.243535842,-2.599821414,0.041054575,FALSE,2.510549347,4.6262,FALSE,184.8329844,,
mp-1209111,RbSrCl3,10,Rb1 Sr1 Cl3,7.73440649,7.73440649,5.71582055,90,90,90,tet,P4/mbm,0,-4.275119462,-2.631405034,0.009470955,FALSE,2.714223849,4.8958,TRUE,341.9263512,,
mp-1209174,RbSrCl3,20,Rb1 Sr1 Cl3,7.849509981,7.919335925,11.223316,90,90,89.5406509,mono,P2_1/m,0.0020669,-4.282469322,-2.638754893,0.002121096,FALSE,2.660539337,5.1392,TRUE,697.6515206,,
mp-998155,RbSrCl3,5,Rb1 Sr1 Cl3,5.702547705,5.702547705,5.698591807,89.92488093,89.92488093,90.06517747,mono,Cm,0.0004622,-4.243543124,-2.599828696,0.041047293,FALSE,2.504054997,4.621,FALSE,185.312355,,
mp-998755,RbSrCl3,10,Rb1 Sr1 Cl3,7.674758349,7.67475913,8.402942914,62.82750999,62.82751262,60.00000675,trig,R-3,0,-4.283996577,-2.640282148,0.00059384,FALSE,2.54822307,5.318,FALSE,364.2007122,,
mp-1205862,RbSrI3,10,Rb1 Sr1 I3,8.266866313,8.266866313,12.14825989,90,90,146.1268279,ortho,Cmcm,0,-3.317850925,-1.868850924,0,TRUE,3.974697601,4.0221,TRUE,462.7313253,,
mp-975200,RbSrO3,5,Rb1 Sr1 O3,4.852875,4.852875,4.852875,90,90,90,cubic,Pm-3m,3,-4.862160836,-1.358791801,0.457093104,FALSE,3.212277272,0,FALSE,114.2871269,,
mp-1076534,RbTaO3,5,Rb1 Ta1 O3,4.07122,4.07122,4.07122,90,90,90,cubic,Pm-3m,0.0004671,-8.513938632,-2.975669706,0.056662274,FALSE,7.737080107,2.0024,FALSE,67.47978871,,