mp_id,composition,a_edge (angstrom),b_edge (angstrom),c_edge (angstrom),alpha_ang (deg),beta_ang (deg),gamma_ang (deg),crystal_system,space_group,formation_energy (eV/atom),energy_above_hull (eV/atom),band_gap (eV),A_site,B_site,X_site
mp-2914,La1 Si3 Ir1,4.287820485,4.287820148,5.794099692,111.7166125,111.7166039,90.00000711,tet,I4mm,-0.861072935,0.0,0.0,La,Ir,Si
mp-1069882,La1 Si3 Os1,5.838141198,5.838141198,5.838141198,136.9314778,136.9314778,62.5434963,tet,I4mm,-0.653720287,0.0,0.0,La,Os,Si
mp-1070124,La1 Si3 Rh1,5.784972992,5.784972992,5.784972992,136.6875476,136.6875476,62.91914798,tet,I4mm,-0.839988951,0.0,0.0,La,Rh,Si
mp-1069594,La1 Si3 Ru1,5.824062573,5.824062573,5.824062573,137.0380075,137.0380075,62.37957667,tet,I4mm,-0.677736739,0.0,0.0,La,Ru,Si
mp-541249,La1 Si1 As3,6.012619,6.132181,26.680201,90.0,90.0,90.0,ortho,Pna2_1,-0.793243731,0.011344865,0.0,La,Si,As
mp-648984,La1 Si1 As3,5.91850973,6.05022648,26.60154643,90.0,90.0,90.0,ortho,Pbca,-0.757370256,0.04721834,0.0,La,Si,As
mp-1232371,La1 Si1 P3,5.722235,5.80105,25.793792,90.0,90.0,90.0,ortho,Pbca,-0.769660309,0.092182144,0.0,La,Si,P
mp-1232374,La1 Si1 P3,5.78309152,5.98363527,25.53921043,90.0,90.0,90.0,ortho,Pna2_1,-0.861842453,0.0,0.5185,La,Si,P
mp-1206882,La1 Si1 Pt3,4.14265914,4.14265914,5.45411186,90.0,90.0,90.0,tet,P4mm,-1.19652086,0.0,0.0,La,Si,Pt
mp-778450,La1 Sm1 O3,6.030177,6.214502,8.731912,90.0,90.0,90.0,ortho,Pna2_1,-3.801280217,0.067660477,4.2879,La,Sm,O
mp-30756,La1 Sn3 Ru1,9.82742301,9.82745436,9.8274554,90.00003253,90.00005329,90.00001545,cubic,Pm-3n,-0.531184291,0.0,0.0,La,Ru,Sn
mp-1185122,La1 Sn1 O3,4.213459,4.213459,4.213459,90.0,90.0,90.0,cubic,Pm-3m,-2.447777261,0.525964737,0.0,La,Sn,O
mp-989620,La1 Ta1 N3,5.763247,7.116368,8.332836231,54.33877234,90.0,90.0,mono,P2_1/c,-1.420524511,0.037732602,0.6895,La,Ta,N
mp-1239192,La1 Ta1 O3,4.073013,4.073013,4.073013,90.0,90.0,90.0,cubic,Pm-3m,-3.129005053,0.33641021,0.0,La,Ta,O
mp-989406,La1 Tc1 N3,3.552912,5.708911,7.463624075,70.2914568,90.0,90.0,mono,P2/m,-0.798052575,0.040955397,0.0,La,Tc,N
mp-989593,La1 Tc1 N3,5.578939911,5.578939911,5.578940418,60.50393108,60.50393108,60.50392938,trig,R-3c,-0.805404482,0.033603491,0.0,La,Tc,N
mp-989619,La1 Tc1 N3,7.387449346,7.387449346,6.192098754,77.48969471,77.48969471,87.60435925,mono,C2/c,-0.839007972,0.0,0.0,La,Tc,N
mp-20085,La1 Ti1 Ge3,6.29781764,6.297816134,5.93978851,90.0,90.0,120.0000026,hex_,P6_3/mmc,-0.779733219,0.0,0.0,La,Ti,Ge
mp-22013,La1 Ti1 O3,5.56856,5.673297,7.938288,90.0,90.0,90.0,ortho,Pnma,-3.63968583,0.025448955,0.0,La,Ti,O
mp-8020,La1 Ti1 O3,3.958938,3.958938,3.958938,90.0,90.0,90.0,cubic,Pm-3m,-3.597550533,0.067584252,0.0,La,Ti,O
mp-1211414,La1 Ti1 S3,3.779885,8.058379,13.248556,90.0,90.0,90.0,ortho,Pnma,-2.075832747,0.023615841,0.0,La,Ti,S
mp-29257,La1 Tl1 O3,3.751911909,3.751911909,13.027912,90.0,90.0,119.9999984,hex_,P6_3mc,-2.331392622,0.156790492,0.3497,La,Tl,O
mp-13374,La1 Tm1 O3,5.85709,6.051442,8.468151,90.0,90.0,90.0,ortho,Pnma,-3.961617086,0.021383826,4.414,La,Tm,O
mp-1199053,La1 Tm1 S3,3.9932477,11.05744785,21.55754485,78.6886192,90.0,90.0,mono,P2_1/m,-2.458534196,0.0,0.7541,La,Tm,S
mp-556841,La1 Tm1 S3,3.98277579,16.39311766,21.37012333,90.0,90.0,90.0,ortho,Pnma,-2.433213842,0.025320355,1.1335,La,Tm,S
mp-1078802,La1 V1 Ge3,6.260616776,6.260616776,5.67791287,90.0,90.0,120.0000025,hex_,P6_3/mmc,-0.57231735,0.0,0.0,La,V,Ge
mp-989403,La1 V1 N3,3.629583,6.02494145,6.328775638,106.9625173,96.41196281,90.8380304,tri,P1,-1.290092623,0.034311582,0.5744,La,V,N
mp-19053,La1 V1 O3,3.950068,3.950068,3.950068,90.0,90.0,90.0,cubic,Pm-3m,-3.102043064,0.177259387,0.0,La,V,O
mp-19350,La1 V1 O3,5.62405784,7.706708683,5.571443663,90.01129201,90.00250722,89.83997778,ortho,Pnma,-3.279302451,0.0,0.0,La,V,O
mp-1211380,La1 V1 S3,3.837115,7.806454,13.233138,90.0,90.0,90.0,ortho,Pnma,-1.853140658,0.05065281,0.0,La,V,S
mp-1211432,La1 V1 Sb3,6.151936,6.315591,13.425593,90.0,90.0,90.0,ortho,Pbcm,-0.6789745,0.004676138,0.0,La,V,Sb
mp-989455,La1 W1 N3,5.644393672,5.644393672,5.64439342,60.62105804,60.62105804,60.62105723,trig,R-3c,-1.210190513,0.034093131,0.0,La,W,N
mp-989497,La1 W1 N3,3.92323858,3.92323858,4.35371765,90.0,90.0,90.0,tet,P4mm,-1.224590378,0.019693266,0.0,La,W,N
mp-989524,La1 W1 N3,5.685491361,5.685491361,5.685491077,60.01458804,60.01458804,60.0145853,trig,R3c,-1.244283644,0.0,1.2096,La,W,N
mp-989601,La1 W1 N3,4.047465765,4.047465765,4.047466475,89.57171754,89.57171754,89.57172064,trig,R3m,-1.220954496,0.023329148,0.7064,La,W,N
mp-989626,La1 W1 N3,5.784456747,5.784456747,3.95800923,90.0,90.0,94.6747204,ortho,Amm2,-1.228832279,0.015451365,0.0,La,W,N
mp-989630,La1 W1 N3,5.654693,5.692628,8.00222,90.0,90.0,90.0,ortho,Pnma,-1.213674321,0.030609324,0.0,La,W,N
mp-989633,La1 W1 N3,7.433985812,7.433846762,6.348757924,76.7395911,76.73688854,85.96467674,mono,C2/c,-1.206993035,0.03729061,2.3862,La,W,N
mp-989646,La1 W1 N3,3.88455453,5.851470092,7.958095272,70.58530128,90.0,90.0,mono,P2_1/m,-1.194919717,0.049363927,1.7118,La,W,N
mp-989699,La1 W1 N3,4.656111762,4.656111762,3.292368,90.0,90.0,119.9999966,mono,Cm,1.20184442,2.446128064,0.0,La,W,N
mp-1222904,La1 Y1 C3,7.401054833,7.401054833,7.401054833,109.4712206,109.4712206,109.4712206,cubic,I2_13,-0.17304143,0.05385678,0.0,La,Y,C
mp-10429,La1 Y1 O3,5.915933,6.123557,8.610897,90.0,90.0,90.0,ortho,Pnma,-3.874982482,0.03991794,4.3416,La,Y,O
mp-1200447,La1 Y1 S3,4.02574354,11.13395924,21.76026455,78.71040024,90.0,90.0,mono,P2_1/m,-2.46285816,0.0,0.7898,La,Y,S
mp-1184965,La1 Zn1 O3,3.9281,3.9281,3.9281,90.0,90.0,90.0,cubic,Pm-3m,-2.522841184,0.131482921,0.0,La,Zn,O
mp-1185065,La1 Zr1 O3,4.193758,4.193758,4.193758,90.0,90.0,90.0,cubic,Pm-3m,-3.428166948,0.287102487,0.0,La,Zr,O
mp-28593,Li3 Br1 O1,3.948643,3.948643,3.948643,90.0,90.0,90.0,cubic,Pm-3m,-1.934252582,0.03706398,4.2775,Br,O,Li
mp-985585,Li3 Cl1 O1,3.908337,3.908337,3.908337,90.0,90.0,90.0,cubic,Pm-3m,-2.064160625,0.029024843,4.9291,Cl,O,Li
mp-1185297,Li1 Ac1 O3,3.919444,3.919444,3.919444,90.0,90.0,90.0,cubic,Pm-3m,-2.407406714,0.129256687,0.0,Li,Ac,O
mp-1398557,Li1 Ag1 F3,5.425231,5.465485534,5.704324863,116.485334,85.85288742,118.0016143,tri,P-1,-1.141374717,0.922600741,0.2067,Li,Ag,F
mp-752605,Li1 Ag1 F3,6.797884998,6.797884998,6.060563828,87.76999929,87.76999929,87.05385101,mono,C2/c,-2.012926891,0.051048567,0.3228,Li,Ag,F
mp-752699,Li1 Ag1 F3,6.536792634,6.536792634,3.203465,90.0,90.0,106.0458693,ortho,Cmmm,-2.014750731,0.049224727,0.0,Li,Ag,F
mp-752837,Li1 Ag1 F3,5.494201721,5.64040248,8.381144233,90.09754484,92.56637796,89.77959479,mono,P2_1/c,-2.013782762,0.050192696,0.0,Li,Ag,F
mp-756821,Li1 Ag1 F3,5.619964,5.270943,9.71852463,57.66862524,90.0,90.0,mono,P2_1/c,-1.991131892,0.072843566,0.0885,Li,Ag,F
mp-757915,Li1 Ag1 F3,5.425231149,5.704325286,5.465485894,63.51467304,61.99838419,85.85289361,tri,P-1,-1.99276249,0.071212968,0.3374,Li,Ag,F
mp-759066,Li1 Ag1 F3,5.940808082,5.940808082,5.940807948,54.794196,54.794196,54.79420784,trig,R3c,-2.004062054,0.059913404,0.0,Li,Ag,F
mp-760151,Li1 Ag1 F3,5.431358862,5.431358862,15.230729,90.0,90.0,120.0000105,hex_,P6_122,-2.007683559,0.056291899,0.2356,Li,Ag,F
mp-1185313,Li1 Al1 O3,3.709189,3.709189,3.709189,90.0,90.0,90.0,cubic,Pm-3m,-2.104722442,0.375126218,0.0,Li,Al,O
mp-559767,Li1 As1 O3,5.220009522,6.847584682,6.847585503,84.99740085,75.4108094,75.41081511,mono,C2/c,-1.948859709,0.035774917,2.9408,Li,As,O
mp-9657,Li1 As1 O3,5.462122369,5.462123678,5.462122762,52.3011792,52.30117693,52.3011727,trig,R-3,-1.984634626,0.0,3.3858,Li,As,O
mp-1185302,Li1 B1 O3,3.307567,3.307567,3.307567,90.0,90.0,90.0,cubic,Pm-3m,-1.239189487,0.966926561,0.0,Li,B,O
mp-28613,Li1 B1 Pt3,9.28120286,9.281202267,2.77546394,90.0,90.0,120.0000021,hex_,P-62m,-0.565376087,0.0,0.0,Li,B,Pt
mp-1079676,Li1 Be1 H3,4.967656928,4.967656928,5.140391182,80.94843897,80.94843897,46.20768972,mono,C2,-0.321556443,0.007902648,4.6523,Li,Be,H
mp-24342,Li1 Be1 H3,4.394895,4.517409,6.276607,90.0,90.0,90.0,ortho,Pnma,-0.223210804,0.106248287,2.7052,Li,Be,H
mp-24817,Li1 Be1 H3,6.012145482,6.142083002,6.783220281,104.0083014,97.22708647,90.37219757,tri,P-1,-0.32742319,0.002035902,4.8947,Li,Be,H
mp-24818,Li1 Be1 H3,4.699526,6.177876608,6.511961852,96.63601795,100.2255236,106.8543587,tri,P-1,-0.324170495,0.005288596,4.9681,Li,Be,H
mp-570218,Li1 Be1 H3,6.15836315,6.029295393,13.1850479,82.38848833,90.0,90.0,mono,P2_1/c,-0.327462007,0.001997084,4.9184,Li,Be,H
mp-977148,Li1 Be1 H3,5.866831667,5.866831667,8.322584,90.0,90.0,120.224482,ortho,Cmcm,-0.322479473,0.006979619,4.4673,Li,Be,H
mp-977298,Li1 Be1 H3,5.911691491,5.911691491,4.692281152,76.01843499,76.01843499,85.26266512,mono,C2/c,-0.312145658,0.017313433,4.5932,Li,Be,H
mp-982975,Li1 Be1 O3,3.507241,3.507241,3.507241,90.0,90.0,90.0,cubic,Pm-3m,-1.346609251,0.570123488,0.0,Li,Be,O
mp-29077,Li1 Bi1 O3,4.94691395,8.88109117,10.77666513,90.0,90.0,90.0,ortho,Pccn,-1.635298933,0.0,0.1443,Li,Bi,O
mp-1197831,Li1 Br1 O3,7.006457,7.012956,12.617017,90.0,90.0,90.0,ortho,Pbca,-0.523262081,0.253321242,0.0,Li,Br,O
mp-1079781,Li1 Ca1 Al3,6.933798682,6.933798682,5.243784,90.0,90.0,120.0000065,hex_,P6_3/m,0.175401562,0.4720191,0.0,Li,Ca,Al
mp-1017626,Li1 Ca1 F3,3.761244,3.761244,3.761244,90.0,90.0,90.0,cubic,Pm-3m,-3.622915532,0.187439322,6.5153,Li,Ca,F
mp-1079935,Li1 Ca1 H3,5.119740479,5.119740479,5.119739575,61.18455606,61.18455606,61.18455605,trig,R-3c,-0.574393054,0.021480728,2.5547,Li,Ca,H
mp-975333,Li1 Ca1 O3,3.77971,3.77971,3.77971,90.0,90.0,90.0,cubic,Pm-3m,-1.64956767,0.348430505,0.0,Li,Ca,O
mp-1185203,Li1 Cd1 O3,3.761737,3.761737,3.761737,90.0,90.0,90.0,cubic,Pm-3m,-0.675997922,0.538053035,0.0,Li,Cd,O
mp-973613,Li1 Ce1 O3,3.68336,3.68336,3.68336,90.0,90.0,90.0,cubic,Pm-3m,-2.54526026,0.471113553,0.0,Li,Ce,O
mp-759500,Li1 Co1 F3,5.122774174,5.119782161,7.56879515,89.54726029,90.24117511,120.1723153,tri,P1,-2.58433139,0.088006856,2.833,Li,Co,F
mp-764370,Li1 Co1 F3,5.133697235,5.133697235,7.547379,90.0,90.0,119.9999901,trig,P3,-2.58365667,0.088681576,3.0432,Li,Co,F
mp-1185311,Li1 Cr1 O3,3.678979,3.678979,3.678979,90.0,90.0,90.0,cubic,Pm-3m,-1.666735624,0.409366555,0.0,Li,Cr,O
mp-752701,Li1 Cu1 F3,5.174564,5.283253897,7.918842472,88.59963804,87.06488842,85.81429906,tri,P-1,-2.3480508,0.017969336,0.1548,Li,Cu,F
mp-753405,Li1 Cu1 F3,9.65586736,3.206197454,7.503504336,74.43748308,90.0,90.0,mono,P2_1/c,-2.33409393,0.031926206,0.5237,Li,Cu,F
mp-758052,Li1 Cu1 F3,5.435852857,5.435852857,5.435851728,55.12123596,55.12123596,55.12123193,trig,R3c,-2.326448652,0.039571484,0.0,Li,Cu,F
mp-760814,Li1 Cu1 F3,5.091637699,5.091637699,8.761179,90.0,90.0,93.22139186,ortho,Amm2,-2.293432298,0.072587838,0.0,Li,Cu,F
mp-761262,Li1 Cu1 F3,4.999326,5.264514478,8.600587986,89.96622443,89.73426473,89.97557767,tri,P1,-2.336533139,0.029486997,0.4097,Li,Cu,F
mp-761897,Li1 Cu1 F3,5.056906814,5.056906814,14.611702,90.0,90.0,120.0000106,hex_,P6_122,-2.324622611,0.041397524,0.7299,Li,Cu,F
mp-1185308,Li1 Dy1 O3,3.674686,3.674686,3.674686,90.0,90.0,90.0,cubic,Pm-3m,-2.257823718,0.412528428,0.0,Li,Dy,O
mp-1185310,Li1 Er1 O3,3.655435,3.655435,3.655435,90.0,90.0,90.0,cubic,Pm-3m,-2.235956588,0.460419717,0.0,Li,Er,O
mp-541365,Li1 Eu1 H3,3.71667895,3.71671165,3.71667895,90.0,90.0,90.0,cubic,Pm-3m,-0.622832676,0.0,0.0,Li,Eu,H
mp-1185344,Li1 Eu1 O3,3.763456,3.763456,3.763456,90.0,90.0,90.0,cubic,Pm-3m,-1.989367385,0.40104815,0.0,Li,Eu,O
mp-1097043,Li1 Fe1 F3,5.590433933,5.590433933,5.590433933,119.2797474,119.2797474,91.25210787,tet,I4/mcm,-2.643744454,0.177927555,2.7983,Li,Fe,F
mp-1176698,Li1 Fe1 F3,5.166437229,5.07588953,4.831859052,89.90787177,89.96065389,120.7520558,ortho,C222_1,-2.78575228,0.035919729,3.7202,Li,Fe,F
mp-1176705,Li1 Fe1 F3,6.293344583,6.293344583,6.453069,90.0,90.0,109.2750614,ortho,Cmcm,-2.752668292,0.069003717,3.4694,Li,Fe,F
mp-1176706,Li1 Fe1 F3,4.927426,6.446867,7.373944,90.0,90.0,90.0,ortho,Pbcm,-2.78821626,0.033455749,0.0069,Li,Fe,F
mp-1176707,Li1 Fe1 F3,7.021042,7.236590737,7.87495474,94.44735984,102.9381626,90.0939888,tri,P-1,-2.749071986,0.072600023,3.4609,Li,Fe,F
mp-1176709,Li1 Fe1 F3,6.132567,6.132567,6.132567,90.0,90.0,90.0,cubic,P2_13,-2.765565006,0.056107003,3.6062,Li,Fe,F
mp-1176718,Li1 Fe1 F3,6.555608,6.675088226,8.804832426,90.58382742,104.5747279,96.80973418,tri,P-1,-2.739323156,0.082348853,3.1318,Li,Fe,F
mp-1176724,Li1 Fe1 F3,6.911964,7.973585855,21.26715075,83.01047849,82.88734625,89.06448116,tri,P-1,-2.630442228,0.191229781,3.0341,Li,Fe,F
mp-1407616,Li1 Fe1 F3,6.304264367,6.304264367,3.235396,90.0,90.0,109.5952555,ortho,Cmmm,-2.254494464,0.567177545,4.2544,Li,Fe,F
mp-1446564,Li1 Fe1 F3,5.069674022,5.069674022,4.831859,90.0,90.0,118.7331834,hex_,P6_322,-2.407116365,0.414555644,4.3867,Li,Fe,F
mp-754051,Li1 Fe1 F3,5.701385927,5.701385927,5.701385104,53.97861217,53.97861217,53.97861545,trig,R-3,-2.575320073,0.246351936,0.0107,Li,Fe,F
mp-754581,Li1 Fe1 F3,3.031441,7.838957,9.990446,90.0,90.0,90.0,ortho,Pnma,-2.739711223,0.081960786,3.3554,Li,Fe,F
mp-754707,Li1 Fe1 F3,7.093731828,7.093731828,5.715725277,73.83625029,73.83625029,79.42169848,mono,C2/c,-2.762422043,0.059249966,3.4248,Li,Fe,F
mp-754816,Li1 Fe1 F3,5.33027,5.353386,7.896101,90.0,90.0,90.0,ortho,Pnma,-2.782189899,0.03948211,3.5148,Li,Fe,F
mp-754994,Li1 Fe1 F3,7.032361409,7.032361409,5.79063177,72.29659831,72.29659831,67.64287451,mono,C2/c,-2.766576763,0.055095246,3.2461,Li,Fe,F
mp-755103,Li1 Fe1 F3,6.542068769,6.542068769,5.87188933,87.43974465,87.43974465,79.1665961,mono,C2/m,-2.724117743,0.097554266,3.1784,Li,Fe,F
mp-755136,Li1 Fe1 F3,5.075314974,5.075314974,7.169032,90.0,90.0,146.2384427,ortho,Cmcm,-2.733902985,0.087769024,3.5861,Li,Fe,F
mp-755179,Li1 Fe1 F3,5.809004,4.040656,5.567039022,70.19480646,90.0,90.0,mono,P2_1/m,-2.720918614,0.100753395,3.2084,Li,Fe,F
mp-755575,Li1 Fe1 F3,3.057776,5.393068,14.687126,90.0,90.0,90.0,ortho,Pnma,-2.726114847,0.095557162,3.468,Li,Fe,F
mp-756109,Li1 Fe1 F3,5.04873,5.328973,8.092654,90.0,90.0,90.0,ortho,Pnma,-2.758334282,0.063337727,3.5185,Li,Fe,F
mp-756113,Li1 Fe1 F3,5.502934,6.582029029,6.894886595,83.31857513,83.66283367,83.84485465,tri,P-1,-2.777782403,0.043889606,0.0,Li,Fe,F
mp-760354,Li1 Fe1 F3,5.204578,5.210010537,7.660117199,89.86489198,89.88291936,60.36033268,tri,P1,-2.729824746,0.091847263,3.2235,Li,Fe,F
mp-761166,Li1 Fe1 F3,5.264507365,5.264507365,5.586626321,62.53720544,62.53720544,59.6416665,mono,Cc,-2.797696494,0.023975515,3.5869,Li,Fe,F
mp-775760,Li1 Fe1 F3,6.967106,7.915190558,12.14921946,106.148431,94.38548247,90.63333499,tri,P-1,-2.737083082,0.084588927,3.1951,Li,Fe,F
mp-776017,Li1 Fe1 F3,5.742143,9.248487,10.062567,90.0,90.0,90.0,ortho,Pbcn,-2.77104249,0.050629519,3.4207,Li,Fe,F
mp-776026,Li1 Fe1 F3,8.811519,8.811519,6.203392,90.0,90.0,90.0,tet,P4_2/n,-2.720377259,0.10129475,3.2462,Li,Fe,F
mp-776027,Li1 Fe1 F3,8.732069,8.732069,6.210444,90.0,90.0,90.0,tet,P4_2/n,-2.729082825,0.092589184,3.162,Li,Fe,F
mp-776077,Li1 Fe1 F3,8.980068,5.672869,10.26738351,75.33245017,90.0,90.0,mono,P2_1/c,-2.78082638,0.040845629,3.3838,Li,Fe,F
mp-776080,Li1 Fe1 F3,4.990726,8.719738,10.589535,90.0,90.0,90.0,ortho,Pccn,-2.793296692,0.028375317,3.6432,Li,Fe,F
mp-776524,Li1 Fe1 F3,6.898029,7.909536889,16.50510541,91.4267911,96.53777708,90.86812597,tri,P-1,-2.74471074,0.076961269,2.624,Li,Fe,F
mp-776604,Li1 Fe1 F3,5.801413,5.814777649,23.26951837,89.96246625,89.95894415,60.45980752,tri,P-1,-2.754185214,0.067486795,2.2238,Li,Fe,F
mp-777470,Li1 Fe1 F3,12.29873847,12.29873847,12.29873798,27.45728192,27.45728192,27.45728169,trig,R-3c,-2.608774637,0.212897372,3.5665,Li,Fe,F
mp-777489,Li1 Fe1 F3,8.814018324,8.814018324,8.814018046,111.7579208,111.7579208,111.7579229,trig,R-3,-2.729223522,0.092448487,3.2182,Li,Fe,F
mp-777522,Li1 Fe1 F3,7.539563428,7.539563428,5.022894,90.0,90.0,155.8069085,ortho,Cmc2_1,-2.798751308,0.022920701,3.467,Li,Fe,F
mp-777622,Li1 Fe1 F3,5.272201,5.367768327,10.05507842,95.35879639,100.3934179,118.9114997,tri,P1,-2.770139842,0.051532167,3.4526,Li,Fe,F
mp-777672,Li1 Fe1 F3,3.235396,6.303753058,6.304775741,70.40473938,89.80160648,89.81444461,ortho,Amm2,-2.752525409,0.0691466,3.2093,Li,Fe,F
mp-777683,Li1 Fe1 F3,10.57564346,10.57564346,10.57564346,108.7261164,108.7261164,110.9719326,tet,I4_1/a,-2.713274406,0.108397603,3.1492,Li,Fe,F
mp-777888,Li1 Fe1 F3,6.105144,6.111730824,6.126761908,90.09645642,90.0485448,90.17288889,trig,R3,-2.785402322,0.036269687,3.4167,Li,Fe,F
mp-777899,Li1 Fe1 F3,3.997998,6.467314,9.913151,90.0,90.0,90.0,ortho,Pnma,-2.754502477,0.067169532,3.4736,Li,Fe,F
mp-780639,Li1 Fe1 F3,7.407518,3.205213,4.94479633,89.94438198,90.0,90.0,mono,P2_1/m,-2.790010001,0.031662008,3.288,Li,Fe,F
mp-780803,Li1 Fe1 F3,5.652553,9.138324,19.704906,90.0,90.0,90.0,ortho,Pbca,-2.782487737,0.039184272,3.4099,Li,Fe,F
mp-1185320,Li1 Fe1 O3,3.776936,3.776936,3.776936,90.0,90.0,90.0,cubic,Pm-3m,-1.249979174,0.314812976,0.0,Li,Fe,O
mp-752521,Li1 Fe1 O3,4.914265618,4.914265618,9.708865561,86.19702507,86.19702507,118.4474645,mono,C2/c,-1.417485106,0.147307044,0.3333,Li,Fe,O
mp-752790,Li1 Fe1 O3,6.615945257,6.615945257,5.991670238,76.7610432,76.7610432,25.13909724,mono,C2/m,-1.392491345,0.172300805,0.1985,Li,Fe,O
mp-756941,Li1 Fe1 O3,4.90058,4.972526,8.119357,90.0,90.0,90.0,ortho,Pnna,-1.416347921,0.148444229,0.0,Li,Fe,O
mp-760833,Li1 Fe1 O3,8.69735631,8.69735631,9.89540604,82.35823657,82.35823657,58.94605295,mono,Cm,-1.433588804,0.131203345,0.3066,Li,Fe,O
mp-761189,Li1 Fe1 O3,5.79940734,5.79940734,6.194660015,72.88444898,72.88444898,29.07169064,mono,C2/m,-1.132933876,0.431858274,0.0,Li,Fe,O
mp-28327,Li1 Ga1 Br3,6.590375716,7.98662599,10.43678705,90.0,90.0,93.48762418,mono,P2_1/m,-1.41944055,0.0,2.9955,Li,Ga,Br
mp-29344,Li1 Ga1 Cl3,6.1298285,9.67455319,15.08643494,90.0,90.0,90.0,ortho,Pnma,-1.508966739,0.0,3.7633,Li,Ga,Cl
mp-29345,Li1 Ga1 I3,11.46892782,7.205198266,8.49154513,87.90341096,90.0,90.0,mono,P2_1/m,-1.006771275,0.0,2.2732,Li,Ga,I
mp-1185401,Li1 Gd1 O3,3.703512,3.703512,3.703512,90.0,90.0,90.0,cubic,Pm-3m,-2.261904236,0.353630917,0.0,Li,Gd,O
mp-1185303,Li1 Ge1 O3,3.727265,3.727265,3.727265,90.0,90.0,90.0,cubic,Pm-3m,-1.668078163,0.373687681,0.0,Li,Ge,O
mp-973818,Li1 Ho1 O3,3.66306,3.66306,3.66306,90.0,90.0,90.0,cubic,Pm-3m,-2.244521941,0.437087038,0.0,Li,Ho,O
mp-1080052,Li1 I1 O3,5.698764525,5.698764525,3.543238,90.0,90.0,120.0000061,hex_,P6_3/mmc,-0.518392876,0.867518993,0.0,Li,I,O
mp-1180548,Li1 I1 O3,6.721816,6.605730073,4.181631,90.0,90.0,120.5830502,ortho,Cmcm,-1.046893263,0.339018606,2.5038,Li,I,O
mp-22955,Li1 I1 O3,5.451286393,5.452365867,5.091213541,90.00528201,90.00709659,120.0017041,hex_,P6_3,-1.385046749,0.00086512,3.6861,Li,I,O
mp-22994,Li1 I1 O3,5.18097706,5.8027117,9.33360494,90.0,90.0,90.0,ortho,Pna2_1,-1.384245134,0.001666735,3.6546,Li,I,O
mp-23384,Li1 I1 O3,9.57814654,9.57814654,6.18228917,90.0,90.0,90.0,tet,P4_2/n,-1.385911869,0.0,3.7886,Li,I,O
mp-545343,Li1 I1 O3,5.23084555,5.23084555,4.811755,90.0,90.0,119.9999943,hex_,P6_322,-1.135403008,0.250508861,0.0,Li,I,O
mp-555562,Li1 I1 O3,9.977056,9.977056,6.772338,90.0,90.0,90.0,tet,P4_2/n,-1.23783812,0.148073749,3.5742,Li,I,O
mp-1185357,Li1 La1 O3,3.822632,3.822632,3.822632,90.0,90.0,90.0,cubic,Pm-3m,-2.383744675,0.222049041,0.0,Li,La,O
mp-976331,Li1 Lu1 O3,3.629798,3.629798,3.629798,90.0,90.0,90.0,cubic,Pm-3m,-2.192363091,0.537357951,0.0,Li,Lu,O
mp-23736,Li1 Mg1 H3,5.25139063,5.251390193,5.251390273,55.93017213,55.93017619,55.93017349,trig,R3c,-0.358561306,0.008794132,0.0004,Li,Mg,H
mp-1185356,Li1 Mg1 O3,3.96983,3.96983,3.96983,90.0,90.0,90.0,cubic,Pm-3m,-1.310809163,0.580104923,0.0,Li,Mg,O
mp-1176630,Li1 Mn1 F3,6.787936006,6.787936006,5.571834124,82.68957354,82.68957354,85.85145478,mono,C2/c,-3.017760658,0.029746814,3.6287,Li,Mn,F
mp-1176631,Li1 Mn1 F3,3.258142,4.91663,7.672981,90.0,90.0,90.0,ortho,Pmma,-3.012963934,0.034543538,0.0158,Li,Mn,F
mp-1176632,Li1 Mn1 F3,5.382932,5.465607,7.962184,90.0,90.0,90.0,ortho,Pnma,-3.003478773,0.044028699,0.0,Li,Mn,F
mp-1176634,Li1 Mn1 F3,6.048613229,6.048613229,5.477723,90.0,90.0,126.3189031,ortho,Cmc2_1,-2.960335662,0.08717181,3.8619,Li,Mn,F