mp_id,composition,a_edge (angstrom),b_edge (angstrom),c_edge (angstrom),alpha_ang (deg),beta_ang (deg),gamma_ang (deg),crystal_system,space_group,formation_energy (eV/atom),energy_above_hull (eV/atom),band_gap (eV),A_site,B_site,X_site
mp-1078348,Ce1 Ga3 Pd1,6.067060161,6.067060161,5.85096203,90.0,90.0,116.5099518,ortho,Cmcm,-0.684558597,0.0,0.0,Ce,Pd,Ga
mp-1226576,Ce1 Ga3 Pt1,4.225949,4.225949,6.156234462,69.92650509,69.92650509,90.0,tet,I-4m2,-0.684243602,0.014246235,0.0,Ce,Pt,Ga
mp-1019598,Ce1 Ga1 O3,5.491883,5.588741,7.869412,90.0,90.0,90.0,ortho,Pnma,-2.996158735,0.127427673,0.0,Ce,Ga,O
mp-22540,Ce1 Ga1 O3,4.413467,4.413467,4.413467,90.0,90.0,90.0,cubic,Pm-3m,-2.239542462,0.884043946,0.0,Ce,Ga,O
mp-33365,Ce1 Ga1 O3,3.894384,3.894384,3.894384,90.0,90.0,90.0,cubic,Pm-3m,-2.890761752,0.232824656,0.0,Ce,Ga,O
mp-13122,Ce1 Ge3 Ir1,4.418200719,4.418200412,5.924727068,111.8921749,111.892168,89.999992,tet,I4mm,-0.654839913,0.0,0.0,Ce,Ir,Ge
mp-13121,Ce1 Ge3 Rh1,5.912687084,5.912687084,5.912687084,136.2746128,136.2746128,63.55606405,tet,I4mm,-0.688103335,0.0,0.0,Ce,Rh,Ge
mp-1198354,Ce1 Ge3 Ru1,9.03402787,9.03402787,9.03402787,90.0,90.0,90.0,cubic,Pm-3n,-0.601952309,0.0,0.0,Ce,Ru,Ge
mp-1214689,Ce1 In3 Pt1,9.83762838,9.83762838,9.83762838,90.0,90.0,90.0,cubic,Pm-3n,-0.542104903,0.039835233,0.0032,Ce,Pt,In
mp-1213810,Ce1 Lu1 O3,5.770303,5.989802,8.344538,90.0,90.0,90.0,ortho,Pnma,-3.888993243,0.057024183,0.1122,Ce,Lu,O
mp-1092225,Ce1 Lu1 S3,6.594528475,6.594528475,9.46316431,90.0,90.0,145.9607972,ortho,Cmcm,-2.384897063,0.005007427,0.0,Ce,Lu,S
mp-1205797,Ce1 Lu1 S3,6.684932775,6.684932775,9.9186,90.0,90.0,147.2645127,ortho,Cmcm,-2.244861796,0.145042694,0.0,Ce,Lu,S
mp-1232197,Ce1 Mg1 S3,6.683761677,6.683761677,6.822072412,73.54189177,73.54189177,109.6363613,mono,C2/m,-1.636951603,0.261151989,0.4021,Ce,Mg,S
mp-1232253,Ce1 Mg1 S3,6.84561,6.845609858,17.554691,90.0,90.0,120.0000007,trig,R-3,-1.822348643,0.07575495,1.0618,Ce,Mg,S
mp-1232259,Ce1 Mg1 Se3,7.023102598,7.023102598,7.170326426,72.55636475,72.55636475,108.944784,mono,C2/m,-1.482840639,0.270354924,0.1546,Ce,Mg,Se
mp-1232360,Ce1 Mg1 Se3,7.130368,7.13036765,18.927456,90.0,90.0,120.0000004,trig,R-3,-1.650955892,0.102239671,0.875,Ce,Mg,Se
mp-1183706,Ce1 Mn1 O3,3.922932,3.922932,3.922932,90.0,90.0,90.0,cubic,Pm-3m,-2.792029401,0.377304224,0.0,Ce,Mn,O
mp-1205748,Ce1 Ni1 Ge3,4.152862,4.170156,11.10566145,90.0,100.7760382,90.0,ortho,Cmmm,-0.569993545,0.010116815,0.0,Ce,Ni,Ge
mp-776207,Ce1 Ni1 O3,5.319284,5.719727,7.671,90.0,90.0,90.0,ortho,Pnma,-2.748283114,0.095256723,1.0117,Ce,Ni,O
mp-866095,Ce1 Ni1 O3,3.785418,3.785418,3.785418,90.0,90.0,90.0,cubic,Pm-3m,-2.396649083,0.446890755,0.0,Ce,Ni,O
mp-568237,Ce1 Ni1 Sb3,6.217198126,12.08356078,12.51647355,90.00087633,89.9912925,90.00095176,ortho,Pbcm,-0.707929827,0.0,0.0,Ce,Ni,Sb
mp-579812,Ce1 Ni1 Sb3,6.26032,12.475883,18.487361,90.0,90.0,90.0,ortho,Pbcm,-0.70576909,0.002160737,0.0,Ce,Ni,Sb
mp-1214439,Ce1 Pb1 O3,6.859465852,6.859465852,7.816508,90.0,90.0,100.9123082,ortho,Cmcm,-2.567250476,0.377044176,0.7349,Ce,Pb,O
mp-1183759,Ce1 Pu1 O3,4.365297,4.365297,4.365297,90.0,90.0,90.0,cubic,Pm-3m,-2.987861633,0.555282607,0.0,Ce,Pu,O
mp-22519,Ce1 Rh3 C1,4.228548,4.228548,4.228548,90.0,90.0,90.0,cubic,Pm-3m,-0.361106943,0.145730656,0.0,Ce,C,Rh
mp-1213826,Ce1 Rh1 O3,5.420128,6.01737,7.72623,90.0,90.0,90.0,ortho,Pnma,-2.552756445,0.169235691,0.0,Ce,Rh,O
mp-1206127,Ce1 Ru3 C1,4.15944336,4.15944336,4.15944336,90.0,90.0,90.0,cubic,Pm-3m,-0.240911858,0.0,0.0,Ce,C,Ru
mp-1078616,Ce1 Sb3 Pd1,5.466707,5.466707,9.055911,90.0,90.0,90.0,tet,P4/nmm,-0.476944873,0.293896945,0.0,Ce,Pd,Sb
mp-38685,Ce1 Sb1 O3,7.767958314,7.767958314,7.767958314,60.0,60.0,60.0,cubic,Fd-3m,-2.48214321,0.458075009,0.0,Ce,Sb,O
mp-777413,Ce1 Sc1 O3,5.62210231,5.81908325,8.04918263,90.0,90.0,90.0,ortho,Pnma,-3.855008807,0.013483154,0.0,Ce,Sc,O
mp-20953,Ce1 Sc1 S3,6.5266654,7.18960587,9.59404885,90.0,90.0,90.0,ortho,Pnma,-2.31473052,0.0,0.0,Ce,Sc,S
mp-1068906,Ce1 Si3 Ir1,5.760735721,5.760735721,5.760735721,136.835617,136.835617,62.69106985,tet,I4mm,-0.83994648,0.0,0.0,Ce,Ir,Si
mp-1068364,Ce1 Si3 Os1,5.816297436,5.816297436,5.816297436,137.5367411,137.5367411,61.61324692,tet,I4mm,-0.65501811,0.0,0.0,Ce,Os,Si
mp-1207122,Ce1 Si3 Pt1,5.700786498,5.700786498,5.700786498,135.5022312,135.5022312,64.75083956,tet,I4mm,-0.797867792,0.0,0.0,Ce,Pt,Si
mp-1070394,Ce1 Si3 Rh1,5.749593511,5.749593511,5.749593511,136.9262954,136.9262954,62.55147273,tet,I4mm,-0.820763166,0.0,0.0,Ce,Rh,Si
mp-13120,Ce1 Si3 Ru1,4.197605821,4.197605119,5.785440998,111.2706126,111.2706053,89.9999986,tet,I4mm,-0.722518684,0.0,0.0,Ce,Ru,Si
mp-1204796,Ce1 Si1 As3,5.990837,25.814133,5.908478,90.0,90.0,90.0,ortho,Pna2_1,-0.73903646,0.030787355,0.0,Ce,Si,As
mp-651900,Ce1 Si1 P3,5.671875,5.857851,24.57401,90.0,90.0,90.0,ortho,Pna2_1,-0.768357256,0.019876745,0.0,Ce,Si,P
mp-1207119,Ce1 Si1 Pt3,4.07683441,4.07683441,5.49257428,90.0,90.0,90.0,tet,P4mm,-1.054200258,0.0,0.0,Ce,Si,Pt
mp-1198476,Ce1 Sn3 Ru1,9.83108,9.83108,9.83108,90.0,90.0,90.0,cubic,Pm-3n,-0.519540024,0.0,0.0053,Ce,Ru,Sn
mp-1183701,Ce1 Ta1 O3,4.054684,4.054684,4.054684,90.0,90.0,90.0,cubic,Pm-3m,-3.053413314,0.35132432,0.0,Ce,Ta,O
mp-1205531,Ce1 Ti1 Ge3,5.88547431,6.24969541,6.249662113,119.9994634,89.99973222,89.999548,hex_,P6_3/mmc,-0.669301495,0.0,0.0,Ce,Ti,Ge
mp-754524,Ce1 Ti1 O3,3.942692,3.942692,3.942692,90.0,90.0,90.0,cubic,Pm-3m,-3.49767458,0.083809456,0.0,Ce,Ti,O
mp-1213788,Ce1 Tm1 O3,5.809565,6.026566,8.395389,90.0,90.0,90.0,ortho,Pnma,-3.862318291,0.066843801,0.0948,Ce,Tm,O
mp-541836,Ce1 Tm1 S3,3.93902459,10.99816952,21.46751046,78.63580823,90.0,90.0,mono,P2_1/m,-2.386672925,0.012308965,0.0,Ce,Tm,S
mp-683985,Ce1 Tm1 S3,3.93317325,16.379001,21.10535562,90.0,90.0,90.0,ortho,Pnma,-2.367505714,0.031476177,0.0,Ce,Tm,S
mp-18769,Ce1 V1 O3,5.48327617,5.64619193,7.6941485,90.0,90.0,90.0,ortho,Pnma,-3.225797496,0.004009322,0.0,Ce,V,O
mp-22593,Ce1 V1 O3,3.920275,3.920275,3.920275,90.0,90.0,90.0,cubic,Pm-3m,-2.963973955,0.265832863,0.0,Ce,V,O
mp-1226471,Ce1 Zn1 Ga3,4.28276,4.28276,6.172314939,69.7001594,69.7001594,90.0,tet,I-4m2,-0.435201654,0.010980789,0.0,Ce,Zn,Ga
mp-753945,Cl1 O1 F3,4.840671761,7.736365895,7.719745104,102.7205879,89.78477273,89.91727654,tri,P-1,-0.918681053,0.0,3.6609,Cl,O,F
mp-1245899,Co3 Sb1 N1,5.484514,5.563497,7.790961,90.0,90.0,90.0,ortho,Pnma,0.087392423,0.126828177,0.0,Sb,N,Co
mp-20679,Co3 Sn1 C1,3.84709,3.84709,3.84709,90.0,90.0,90.0,cubic,Pm-3m,0.030316296,0.068668166,0.0,Sn,C,Co
mp-1206910,Co1 Ag1 F3,4.044962,4.044962,4.044962,90.0,90.0,90.0,cubic,Pm-3m,-1.629735726,0.26776489,0.0,Co,Ag,F
mp-1206915,Co1 Ag1 F3,4.383699,4.383699,4.383699,90.0,90.0,90.0,cubic,Pm-3m,-0.841464024,1.056036592,0.0,Co,Ag,F
mp-1273356,Co1 Ag1 O3,5.130396276,6.019753941,7.517401906,77.80944957,85.7261858,82.23842171,tri,P-1,-0.742011777,0.082212319,0.0,Co,Ag,O
mp-752700,Co1 Ag1 O3,6.968096167,6.968096167,4.998813817,86.70020317,86.70020317,75.15577074,mono,C2/c,-0.361560325,0.462663771,0.0,Co,Ag,O
mp-753992,Co1 Ag1 O3,5.956940831,5.956823174,5.956509099,49.6068016,49.60418098,49.60355886,trig,R-3,-0.731104968,0.093119128,0.0,Co,Ag,O
mp-1183686,Co1 Au1 O3,3.798996,3.798996,3.798996,90.0,90.0,90.0,cubic,Pm-3m,-0.220394899,0.623507945,0.0,Co,Au,O
mp-1183397,Co1 B1 O3,3.354742,3.354742,3.354742,90.0,90.0,90.0,cubic,Pm-3m,-0.910297727,1.226717351,0.0,Co,B,O
mp-757083,Co1 B1 O3,4.905127,5.266612145,5.601817232,88.52340808,109.8063604,117.1815746,tri,P-1,-1.960627776,0.176387302,0.1471,Co,B,O
mp-765572,Co1 B1 O3,5.164445329,5.164445329,9.913262399,89.96197537,89.96197537,118.6935462,mono,C2/c,-1.937578791,0.199436286,1.0669,Co,B,O
mp-1188346,Co1 Bi1 O3,5.365408,5.508628,7.629159,90.0,90.0,90.0,ortho,Pnma,-1.376683918,0.082228795,0.3878,Co,Bi,O
mp-545522,Co1 Bi1 O3,3.72444997,3.72443794,4.02083227,90.0,90.0,90.0,tet,P4mm,-1.458912713,0.0,0.0,Co,Bi,O
mp-1181984,Co1 C1 O3,6.743591124,6.743591124,5.721781088,73.49745241,73.49745241,86.58768276,mono,C2/c,-1.244666207,0.421501477,1.5474,Co,C,O
mp-21434,Co1 C1 O3,5.600724049,5.600796878,5.600603551,49.09562594,49.09799842,49.0918071,trig,R-3c,-1.666167683,0.0,0.0,Co,C,O
mp-22136,Co1 Ge1 O3,5.154026239,6.594601194,6.594393125,86.0869454,82.02408475,82.01102945,mono,C2/c,-1.785913831,0.020114759,0.0,Co,Ge,O
mp-550220,Co1 Ge1 O3,5.192322469,6.692759041,6.689975416,85.64142762,81.6477913,81.38299526,mono,C2,-1.787265346,0.018763245,1.5623,Co,Ge,O
mp-1246547,Co1 Mo1 N3,10.17423282,6.352410364,9.44826044,124.7774026,101.3318678,114.6834591,tri,P-1,0.137504424,0.384047341,0.0,Co,Mo,N
mp-1183772,Co1 Mo1 O3,3.9836,3.9836,3.9836,90.0,90.0,90.0,cubic,Pm-3m,-1.047837765,0.673827807,0.0,Co,Mo,O
mp-1213745,Co1 N1 F3,3.767843,3.767843,3.767843,90.0,90.0,90.0,cubic,Pm-3m,-0.387347167,1.334819984,0.0,Co,N,F
mp-1178424,Co1 Ni1 O3,4.805549005,4.80584566,5.174955284,62.33176629,117.6711453,120.0070479,trig,R-3,-1.136651948,0.0,0.0,Co,Ni,O
mp-1272234,Co1 Ni1 O3,4.883114862,5.031641255,5.443205872,60.5839049,118.1848064,120.258025,tri,P1,-1.113034287,0.023617661,0.7645,Co,Ni,O
mp-1279343,Co1 Ni1 O3,4.938243896,4.885106582,5.333241496,63.16126914,116.9175098,120.3538839,tri,P-1,-1.136285237,0.000366711,0.9607,Co,Ni,O
mp-676437,Co1 P1 S3,5.76964479,5.76964479,6.859621572,98.08595857,98.08595857,119.9910647,mono,C2/m,-0.288116229,0.103177752,0.0,Co,P,S
mp-1178420,Co1 Pb1 O3,5.522138105,5.774708535,9.552708611,105.8932444,89.88966352,61.49456483,trig,R-3,-1.280296279,0.049384604,0.0,Co,Pb,O
mp-755569,Co1 Pb1 O3,5.326255,5.430663,7.560218,90.0,90.0,90.0,ortho,Pnma,-1.190765635,0.138915248,0.0,Co,Pb,O
mp-770488,Co1 Pb1 O3,5.367635,7.646726,10.812615,90.0,90.0,90.0,ortho,Pbam,-1.177454364,0.15222652,0.0,Co,Pb,O
mp-1183715,Co1 Rh1 O3,3.89383,3.89383,3.89383,90.0,90.0,90.0,cubic,Pm-3m,-0.443217951,0.796887344,0.0,Co,Rh,O
mp-1183681,Co1 Sb1 O3,3.764759,3.764759,3.764759,90.0,90.0,90.0,cubic,Pm-3m,-1.068112115,0.580026284,0.2955,Co,Sb,O
mp-22616,Co1 Se1 O3,5.091809,6.015058,7.660772,90.0,90.0,90.0,ortho,Pnma,-1.281329637,0.029257131,1.852,Co,Se,O
mp-562826,Co1 Se1 O3,9.453972892,9.455632534,15.21171729,72.62075671,72.61310859,64.47336131,mono,C2/c,-1.310586768,0.0,0.0,Co,Se,O
mp-699575,Co1 Si1 O3,5.264575,9.044314,18.463858,90.0,90.0,90.0,ortho,Pbca,-2.450514764,0.021916501,2.6147,Co,Si,O
mp-1183692,Co1 Sn1 O3,3.742693,3.742693,3.742693,90.0,90.0,90.0,cubic,Pm-3m,-1.095084598,0.683751724,0.0,Co,Sn,O
mp-752613,Co1 Sn1 O3,5.394922,5.422766,7.81053,90.0,90.0,90.0,ortho,Pnma,-1.702570365,0.076265957,0.9832,Co,Sn,O
mp-761574,Co1 Sn1 O3,5.359883576,5.668033854,9.280310523,105.8480092,89.99906724,61.79111672,trig,R-3,-1.744010904,0.034825418,0.0,Co,Sn,O
mp-19113,Co1 Te1 O3,5.397197419,6.066959342,7.567832225,89.99698511,89.97892513,89.95961348,ortho,Pnma,-1.400261957,0.047210726,0.0,Co,Te,O
mp-985545,Co1 Te1 O3,3.779381,3.779381,3.779381,90.0,90.0,90.0,cubic,Pm-3m,-0.733957116,0.713515566,0.0,Co,Te,O
mp-1247505,Co1 W1 N3,5.628246968,7.471724806,7.900309469,114.8563168,110.1823734,79.03076357,tri,P-1,0.037443003,0.316095461,0.1728,Co,W,N
mp-1079324,Cr3 As1 C1,5.337596378,5.337596378,7.465583,90.0,90.0,147.5989921,ortho,Cmcm,-0.071953201,0.06190624,0.0,As,C,Cr
mp-22209,Cr3 As1 N1,5.470369498,5.470369498,5.470369498,121.5749358,121.5749358,87.29311231,tet,I4/mcm,-0.337746798,0.110513479,0.0,As,N,Cr
mp-3000,Cr3 Ga1 N1,3.829202,3.829202,3.829202,90.0,90.0,90.0,cubic,Pm-3m,-0.30379861,0.022125521,0.0,Ga,N,Cr
mp-29804,Cr3 Ge1 C1,5.341816426,5.341816426,7.648346,90.0,90.0,148.8567973,ortho,Cmcm,-0.059735964,0.034794967,0.0,Ge,C,Cr
mp-637918,Cr3 Ge1 N1,5.330989,5.330989,4.010243,90.0,90.0,90.0,tet,P-42_1m,-0.280031404,0.019643324,0.0,Ge,N,Cr
mp-505628,Cr3 Ir1 N1,3.89412981,3.87556191,3.87562293,90.0,90.0,90.0,cubic,Pm-3m,-0.357567364,0.011030993,0.0,Ir,N,Cr
mp-1078492,Cr3 P1 C1,5.121017295,5.121017295,7.258164,90.0,90.0,146.2460681,ortho,Cmcm,-0.243866435,0.034978445,0.0,P,C,Cr
mp-1080816,Cr3 P1 N1,4.953841909,4.953841909,7.105107,90.0,90.0,142.7360972,ortho,Cmcm,-0.489215054,0.01279957,0.0,P,N,Cr
mp-10373,Cr3 Pd1 N1,3.839933,3.839933,3.839933,90.0,90.0,90.0,cubic,Pm-3m,-0.258863486,0.074729003,0.0,Pd,N,Cr
mp-10374,Cr3 Pt1 N1,3.91539656,3.91236156,3.91239065,90.0,90.0,90.0,cubic,Pm-3m,-0.301801054,0.108209408,0.0,Pt,N,Cr
mp-21244,Cr3 Rh1 N1,3.819403,3.819403,3.819403,90.0,90.0,90.0,cubic,Pm-3m,-0.312295717,0.026633223,0.0,Rh,N,Cr
mp-10376,Cr3 Sn1 N1,3.936886,3.936886,3.936886,90.0,90.0,90.0,cubic,Pm-3m,-0.173826625,0.125848102,0.0,Sn,N,Cr
mp-19299,Cr1 B1 O3,5.445644799,5.445645192,5.445640516,49.79199416,49.79199045,49.79199964,trig,R-3c,-2.620118577,0.0,0.0,Cr,B,O
mp-1181841,Cr1 Bi1 O3,13.24440037,5.817435677,9.060490957,102.5098738,136.9608451,72.76072967,mono,Cc,-0.057212796,1.946944696,0.0298,Cr,Bi,O
mp-23456,Cr1 Bi1 O3,5.567582328,9.763593378,5.567568029,73.72882512,60.18539801,73.72870368,mono,C2/c,-1.981474704,0.022682788,1.2937,Cr,Bi,O
mp-546027,Cr1 Bi1 O3,5.515867918,5.515866201,5.515333778,89.99986695,59.99684153,59.999914,trig,R3c,-1.989452451,0.014705041,1.9847,Cr,Bi,O
mp-559851,Cr1 Bi1 O3,5.39780298,5.56848039,7.71661667,89.99996686,89.99973739,89.99994394,ortho,Pnma,-1.992954802,0.01120269,1.7905,Cr,Bi,O
mp-1202206,Cr1 Cl3 O1,5.95601,14.526972,12.16005829,90.0,99.34618792,90.0,mono,P2_1/c,-1.203604444,0.145302105,1.4763,Cr,O,Cl
mp-1206044,Cr1 Co1 Br3,7.08197949,7.08197949,5.943138,90.0,90.0,119.9999952,hex_,P6_3/mmc,-0.205808281,0.768115015,0.0,Cr,Co,Br
mp-1205501,Cr1 Co1 Cl3,5.691366,6.57425762,6.57425762,119.9999962,90.0,90.0,hex_,P6_3/mmc,-0.359812349,0.780623854,0.0,Cr,Co,Cl
mp-1183696,Cr1 Cu1 O3,3.698777,3.698777,3.698777,90.0,90.0,90.0,cubic,Pm-3m,-1.024200595,0.585032039,0.0,Cr,Cu,O
mp-1206130,Cr1 Fe3 N1,3.80931,3.80931,3.80931,90.0,90.0,90.0,cubic,Pm-3m,0.109825293,0.483840872,0.0,Cr,N,Fe
mp-1078458,Cr1 Fe1 O3,5.04700635,5.046128036,5.409819622,62.18937193,117.814556,120.0042255,trig,R-3,-2.026850883,0.009988678,0.0,Cr,Fe,O
mp-1244876,Cr1 Fe1 O3,10.12006643,10.47822636,10.91000671,93.22044296,88.31479474,82.27422987,tri,P1,-1.277711292,0.759128269,0.7842,Cr,Fe,O
mp-1244905,Cr1 Fe1 O3,10.52185344,10.27602693,9.523828031,96.17737423,99.54326461,83.86445829,tri,P1,-1.606588739,0.430250822,0.102,Cr,Fe,O
mp-1245072,Cr1 Fe1 O3,10.35272736,10.12698983,9.956553453,85.0318583,86.49238464,88.16394058,tri,P1,-1.589463524,0.447376037,0.4785,Cr,Fe,O
mp-1245144,Cr1 Fe1 O3,10.25263577,10.89455767,9.426688667,92.83451381,94.62760904,95.69280771,tri,P1,-1.629086144,0.407753417,0.4407,Cr,Fe,O
mp-1245147,Cr1 Fe1 O3,10.0212608,10.93656827,9.347078628,91.27039424,93.00455529,89.38567011,tri,P1,-1.578399517,0.458440044,0.4341,Cr,Fe,O
mp-1245179,Cr1 Fe1 O3,9.957239187,9.965952654,10.00374561,89.27478509,87.93391509,92.19663767,tri,P1,-1.637823245,0.399016316,0.4255,Cr,Fe,O
mp-1245204,Cr1 Fe1 O3,10.07227948,10.27269981,10.03446453,90.90018279,97.93299624,87.42766253,tri,P1,-1.655266767,0.381572794,0.6733,Cr,Fe,O
mp-1245260,Cr1 Fe1 O3,9.655590124,10.19567215,10.50062916,88.81757558,96.66938364,87.76435528,tri,P1,-1.629322427,0.407517134,0.4224,Cr,Fe,O
mp-8829,Cr1 Ga1 Se3,3.76641143,10.26003063,12.49218408,90.0,90.0,90.0,ortho,Pnma,-0.861763318,0.0,0.0,Cr,Ga,Se
mp-1183712,Cr1 Ge1 O3,3.743292,3.743292,3.743292,90.0,90.0,90.0,cubic,Pm-3m,-1.547161352,0.606627581,0.0,Cr,Ge,O
mp-541449,Cr1 Ge1 Te3,8.22483787,8.224837554,8.224837076,49.62885504,49.62884833,49.62884945,trig,R-3,-0.419505622,0.0,0.0,Cr,Ge,Te
mp-28532,Cr1 In1 Br3,15.155061,4.295885,9.532445971,83.86088559,90.0,90.0,mono,P2_1/c,-0.973210912,0.049995816,0.0,Cr,In,Br
mp-756147,Cr1 In1 O3,5.247183001,5.450137001,7.729873,89.99989555,90.00006982,89.9975895,ortho,Pnma,-2.129044674,0.051282904,1.4521,Cr,In,O
mp-1226313,Cr1 Mo1 O3,3.970268245,3.970268245,3.970268472,80.63273246,80.63273246,80.63274194,trig,R3,-1.648496433,0.444497286,0.0,Cr,Mo,O
mp-31703,Cr1 O1 F3,5.331868,5.331868,9.119184,90.0,90.0,90.0,tet,P4_1,-2.24098948,0.19245038,2.1933,Cr,O,F
mp-1101069,Cr1 P1 Se3,6.346822765,6.346822765,7.011822922,81.34023461,81.34023461,119.9164314,mono,C2/m,-0.54438463,0.041522399,0.0,Cr,P,Se
mp-22364,Cr1 Pb1 O3,3.917057,3.917057,3.917057,90.0,90.0,90.0,cubic,Pm-3m,-1.738003189,0.156582256,0.0,Cr,Pb,O
mp-1183719,Cr1 Rh1 O3,3.916935,3.916935,3.916935,90.0,90.0,90.0,cubic,Pm-3m,-0.759399987,0.972423525,0.0,Cr,Rh,O
mp-9130,Cr1 Sb1 S3,3.64237683,8.85576533,12.90915925,90.0,90.0,90.0,ortho,Pnma,-0.785111498,0.0,0.0,Cr,Sb,S
mp-15236,Cr1 Sb1 Se3,3.82541442,9.32794413,13.52534271,90.0,90.0,90.0,ortho,Pnma,-0.68635182,0.0,0.0,Cr,Sb,Se
mp-3779,Cr1 Si1 Te3,8.259897013,8.25989776,8.259897444,48.84663891,48.84663822,48.84664312,trig,R-3,-0.438944072,0.0,0.0,Cr,Si,Te
mp-1183695,Cr1 Tc1 O3,3.892618,3.892618,3.892618,90.0,90.0,90.0,cubic,Pm-3m,-1.40032656,0.630481439,0.0,Cr,Tc,O
mp-1226283,Cr1 W1 O3,4.84608559,4.84608559,4.846085245,86.69283229,86.69283229,86.69284859,trig,R3,-1.388721045,0.726917571,0.8863,Cr,W,O
mp-505212,Cs3 Au1 O1,7.85221889,7.852218079,7.08932365,90.0,90.0,119.9999991,hex_,P6_3/mmc,-0.871697987,0.0,1.3261,Au,O,Cs
mp-1205638,Cs3 Br1 O1,7.841265711,7.841265711,7.12849225,90.0,90.0,119.9999987,hex_,P6_3/mmc,-1.553112871,0.0,1.5515,Br,O,Cs
mp-562420,Cs3 Cl1 O1,4.44156614,9.55407043,16.43001581,90.0,90.0,90.0,ortho,Pnma,-1.61428236,0.001736147,1.6128,Cl,O,Cs
mp-1206444,Cs3 I1 O1,8.115433731,8.115433731,7.2073345,90.0,90.0,120.0000019,hex_,P6_3/mmc,-1.456766823,0.0,1.5285,I,O,Cs
mp-1183923,Cs1 Ac1 O3,4.870277,4.870277,4.870277,90.0,90.0,90.0,cubic,Pm-3m,-2.188665903,0.220435035,0.0,Cs,Ac,O
mp-1399321,Cs1 Ag1 Br3,5.497825,5.494482,5.494832419,89.94623729,90.0,90.0,ortho,Amm2,-1.238915519,0.0,0.0,Cs,Ag,Br
mp-1946459,Cs1 Ag1 Br3,5.41674293,5.420254857,5.421173363,90.01879224,90.0,90.0,cubic,Pm-3m,-1.236417299,0.00249822,0.0,Cs,Ag,Br
mp-998344,Cs1 Ag1 Br3,5.494832832,5.497825358,5.494481653,89.97403467,89.94622685,89.94686603,mono,Pm,-1.238895725,1.98e-05,0.0,Cs,Ag,Br
mp-28610,Cs1 Ag1 Cl3,7.26308157,7.26308194,7.367583412,119.5239302,119.5239311,90.01406476,tet,I4/mmm,-1.262984392,0.0,0.0,Cs,Ag,Cl
mp-561920,Cs1 Ag1 F3,6.253492187,6.25349198,6.253492716,91.29504521,119.255156,119.2551389,tet,I4/mcm,-2.066297088,0.0,0.0,Cs,Ag,F
mp-1189272,Cs1 Al1 Te3,14.12703173,7.28206706,8.296571453,76.08096223,90.0,90.0,mono,P2_1/c,-0.806369902,0.0,1.3209,Cs,Al,Te
mp-1178465,Cs1 As1 O3,5.041437671,5.041437671,9.994093,90.0,90.0,119.9999957,trig,P-31m,-1.789989023,0.100516557,2.192,Cs,As,O
mp-1183911,Cs1 As1 O3,4.075589,4.075589,4.075589,90.0,90.0,90.0,cubic,Pm-3m,-1.127853798,0.762651782,0.0,Cs,As,O
mp-776093,Cs1 As1 O3,5.33191898,6.05643105,11.77973995,90.0,90.0,90.0,ortho,Pbcm,-1.890505581,0.0,2.8702,Cs,As,O
mp-1112987,Cs1 Au1 Br3,5.47254,5.47254,5.47254,90.0,90.0,90.0,cubic,Pm-3m,-1.167613115,0.053059759,0.0,Cs,Au,Br
mp-569548,Cs1 Au1 Br3,7.810130999,7.810131921,7.958570721,119.384907,119.3849062,89.99999244,tet,I4/mmm,-1.220672874,0.0,0.653,Cs,Au,Br
mp-23026,Cs1 Au1 Cl3,5.206833,5.206833,5.206833,90.0,90.0,90.0,cubic,Pm-3m,-1.125408411,0.070643344,0.0,Cs,Au,Cl
mp-23484,Cs1 Au1 Cl3,7.46498905,7.464989609,7.615689598,119.3475383,119.347547,90.00000305,tet,I4/mmm,-1.196051755,0.0,0.5386,Cs,Au,Cl
mp-1112985,Cs1 Au1 F3,4.567677,4.567677,4.567677,90.0,90.0,90.0,cubic,Pm-3m,-1.816648375,0.104128091,0.0,Cs,Au,F
mp-28453,Cs1 Au1 I3,8.39381681,8.393815879,8.526452143,119.4867412,119.4867451,89.9999958,tet,I4/mmm,-0.947759205,0.0,0.7337,Cs,Au,I
mp-1185548,Cs1 Au1 O3,4.289972,4.289972,4.289972,90.0,90.0,90.0,cubic,Pm-3m,-0.461654869,0.448214524,0.0,Cs,Au,O
mp-567913,Cs1 Au1 Se3,6.592005256,7.695256202,7.732700027,81.02189656,68.63364999,64.64449123,mono,C2/c,-0.582583462,0.0,1.0527,Cs,Au,Se
mp-573358,Cs1 B1 Se3,6.206779423,7.702960693,12.95795499,90.0,90.0,106.8241571,mono,P2_1/c,-0.85585178,0.0,1.7167,Cs,B,Se
mp-1096925,Cs1 Ba1 I3,5.27736676,10.58078051,18.51071733,90.0,90.0,90.0,ortho,Pnma,-1.924319006,0.0,3.6259,Cs,Ba,I
mp-1183934,Cs1 Ba1 O3,5.030816,5.030816,5.030816,90.0,90.0,90.0,cubic,Pm-3m,-1.309891839,0.48376279,0.0,Cs,Ba,O
mp-1017555,Cs1 Be1 F3,4.035341,4.035341,4.035341,90.0,90.0,90.0,cubic,Pm-3m,-2.744806804,0.662552306,5.3671,Cs,Be,F