mp_id,composition,a_edge (angstrom),b_edge (angstrom),c_edge (angstrom),alpha_ang (deg),beta_ang (deg),gamma_ang (deg),crystal_system,space_group,formation_energy (eV/atom),energy_above_hull (eV/atom),band_gap (eV),A_site,B_site,X_site
mp-1075904,Eu1 Fe1 O3,3.865278,3.865278,3.865278,90.0,90.0,90.0,cubic,Pm-3m,-2.358621026,0.217510929,0.0,Eu,Fe,O
mp-504703,Eu1 Fe1 O3,5.498311,5.5879,7.796327,90.0,90.0,90.0,ortho,Pnma,-2.426775158,0.149356797,0.0,Eu,Fe,O
mp-1225128,Eu1 Ga3 Ag1,6.245589545,6.245589545,6.245589545,139.5323532,139.5323532,58.56404667,tet,I-4m2,-0.46893803,0.0,0.0,Eu,Ag,Ga
mp-1225152,Eu1 Ga3 Cu1,6.089450218,6.089450218,6.089450218,139.6484425,139.6484425,58.38747938,tet,I-4m2,-0.411726842,0.0,0.0,Eu,Cu,Ga
mp-1078429,Eu1 Ga3 Pd1,6.069418262,6.069418262,5.91717711,90.0,90.0,116.4756808,ortho,Cmcm,-0.714510963,0.0,0.0,Eu,Pd,Ga
mp-1206706,Eu1 Ga1 O3,3.672965252,3.672965252,11.597998,90.0,90.0,119.9999865,hex_,P6_3/mmc,-2.692836499,0.164248114,0.0,Eu,Ga,O
mp-1212729,Eu1 Ga1 O3,5.463648,5.623637,7.686061,90.0,90.0,90.0,ortho,Pnma,-2.683528855,0.173555759,0.0,Eu,Ga,O
mp-1068715,Eu1 Ge3 Ir1,5.973193329,5.973193329,5.973193329,136.029868,136.029868,63.93416227,tet,I4mm,-0.595465364,0.0,0.0,Eu,Ir,Ge
mp-1068422,Eu1 Ge3 Pd1,5.958681488,5.958681488,5.958681488,135.9971454,135.9971454,63.98474846,tet,I4mm,-0.581011208,0.0,0.0,Eu,Pd,Ge
mp-19763,Eu1 Ge3 Pt1,4.482715624,4.482712873,5.929244457,112.2109185,112.2109286,90.00000332,tet,I4mm,-0.648620024,0.0,0.0,Eu,Pt,Ge
mp-1069658,Eu1 Ge3 Rh1,5.922378063,5.922378063,5.922378063,136.2846057,136.2846057,63.54063592,tet,I4mm,-0.668312321,0.0,0.0,Eu,Rh,Ge
mp-865181,Eu1 Ge1 O3,3.83991258,3.836787962,3.841179293,90.00353639,90.00233111,90.01420426,cubic,Pm-3m,-2.600853747,0.09222758,0.0,Eu,Ge,O
mp-581575,Eu1 Ge1 S3,8.41611227,8.485661838,11.77012284,69.18407749,80.70013195,75.42701155,tri,P-1,-1.358780296,0.0,0.0,Eu,Ge,S
mp-644246,Eu1 H3 Pd1,3.78882214,3.79214528,3.79250035,90.0,90.0,90.0,cubic,Pm-3m,-0.590813538,0.0,0.0,Eu,Pd,H
mp-1078670,Eu1 H1 O3,3.765045,5.689731,5.885381477,65.91697234,90.0,90.0,mono,P2_1/m,-1.734919808,0.371667368,0.0,Eu,H,O
mp-753781,Eu1 Hf1 O3,4.09768332,4.09766316,4.09771369,89.99898543,89.99935178,90.00050728,cubic,Pm-3m,-3.719666126,0.0,0.4796,Eu,Hf,O
mp-1190059,Eu1 Hf1 S3,6.60695663,7.07850207,9.64170674,90.0,90.0,90.0,ortho,Pnma,-2.085053584,0.0,0.1287,Eu,Hf,S
mp-1184359,Eu1 Hg1 O3,4.240331,4.240331,4.240331,90.0,90.0,90.0,cubic,Pm-3m,-1.404772589,0.571836683,0.0,Eu,Hg,O
mp-1184304,Eu1 In1 O3,4.191291,4.191291,4.191291,90.0,90.0,90.0,cubic,Pm-3m,-2.212943621,0.506676351,0.0,Eu,In,O
mp-1212795,Eu1 In1 O3,5.712293,5.996883,8.162569,90.0,90.0,90.0,ortho,Pnma,-2.501431544,0.218188428,0.0,Eu,In,O
mp-1212980,Eu1 In1 O3,6.419938368,6.419936872,12.31365353,90.00033456,89.9998285,120.0001507,hex_,P6_3cm,-2.571072765,0.148547207,0.0,Eu,In,O
mp-1184445,Eu1 Ir1 O3,4.010484,4.010484,4.010484,90.0,90.0,90.0,cubic,Pm-3m,-1.89388834,0.396099717,0.0,Eu,Ir,O
mp-1184309,Eu1 Lu1 O3,4.257594,4.257594,4.257594,90.0,90.0,90.0,cubic,Pm-3m,-3.235025997,0.549452067,0.0,Eu,Lu,O
mp-1225137,Eu1 Mg1 Ga3,4.31164196,4.31164196,6.443302586,70.45280835,70.45280835,90.0,tet,I-4m2,-0.419293375,0.0,0.0,Eu,Mg,Ga
mp-972931,Eu1 Mg1 O3,3.92269,3.92269,3.92269,90.0,90.0,90.0,cubic,Pm-3m,-2.529818963,0.408090983,0.0,Eu,Mg,O
mp-1099619,Eu1 Mn1 O3,3.876972,3.876972,3.876972,90.0,90.0,90.0,cubic,Pm-3m,-2.60387543,0.125670771,0.0,Eu,Mn,O
mp-20614,Eu1 Mn1 O3,5.40858695,5.41134345,7.67572013,90.0,90.0,90.0,ortho,Pnma,-2.652771528,0.076774672,0.0,Eu,Mn,O
mp-1184411,Eu1 Mo1 O3,4.100221,4.100221,4.100221,90.0,90.0,90.0,cubic,Pm-3m,-2.482626112,0.149660001,0.0,Eu,Mo,O
mp-1078341,Eu1 Nb1 O3,5.709876911,5.706059609,5.706064032,60.57379755,59.97948554,59.9795908,ortho,Imma,-3.143563456,0.0,0.0,Eu,Nb,O
mp-755572,Eu1 Nb1 O3,4.063504103,4.063226623,4.062844725,90.01351307,90.03716072,90.05954234,cubic,Pm-3m,-3.119947585,0.023615871,0.0,Eu,Nb,O
mp-974769,Eu1 Ni1 Ge3,5.783994395,5.783994395,5.783994395,136.0205306,136.0205306,63.94859619,tet,I4mm,-0.522057076,0.0,0.0,Eu,Ni,Ge
mp-20718,Eu1 Ni1 O3,5.32951865,5.32027611,7.58382395,90.0,90.0,90.0,ortho,Pnma,-2.074794617,0.136275027,0.0,Eu,Ni,O
mp-977412,Eu1 Ni1 O3,3.792445,3.792445,3.792445,90.0,90.0,90.0,cubic,Pm-3m,-2.003383026,0.207686618,0.0,Eu,Ni,O
mp-1213363,Eu1 Np1 O3,5.94021533,6.13438638,8.55275324,90.0,90.0,90.0,ortho,Pnma,-3.419096551,0.0,0.0,Eu,Np,O
mp-977370,Eu1 Os1 O3,3.988748,3.988748,3.988748,90.0,90.0,90.0,cubic,Pm-3m,-2.039850706,0.287265964,0.0,Eu,Os,O
mp-20217,Eu1 P1 S3,7.55293914,6.64483084,11.29563194,55.65330523,90.0,90.0,mono,P2_1/c,-1.288086224,0.0,0.844,Eu,P,S
mp-20742,Eu1 P1 Se3,7.80256507,6.99196033,11.82313847,55.42852351,90.0,90.0,mono,P2_1/c,-1.107034159,0.0,0.4933,Eu,P,Se
mp-1184348,Eu1 Pb1 O3,4.284826,4.284826,4.284826,90.0,90.0,90.0,cubic,Pm-3m,-1.999166594,0.424810143,0.0,Eu,Pb,O
mp-1184369,Eu1 Pd1 O3,4.029298,4.029298,4.029298,90.0,90.0,90.0,cubic,Pm-3m,-1.79083724,0.30797234,0.0,Eu,Pd,O
mp-976258,Eu1 Pt1 O3,4.066685,4.066685,4.066685,90.0,90.0,90.0,cubic,Pm-3m,-1.74320679,0.411219744,0.0,Eu,Pt,O
mp-976320,Eu1 Re1 O3,4.001367,4.001367,4.001367,90.0,90.0,90.0,cubic,Pm-3m,-2.352689649,0.254660152,0.0,Eu,Re,O
mp-21076,Eu1 Rh3 C1,4.223061,4.223061,4.223061,90.0,90.0,90.0,cubic,Pm-3m,-0.204243643,0.060893817,0.0,Eu,C,Rh
mp-19801,Eu1 Rh1 O3,5.3652239,5.75539092,7.72552875,90.0,90.0,90.0,ortho,Pnma,-2.205840329,0.065275578,0.0,Eu,Rh,O
mp-866036,Eu1 Ru1 O3,3.983635011,3.985097006,3.985313005,89.99935287,90.00580944,90.00635604,cubic,Pm-3m,-2.16032688,0.218207253,0.0,Eu,Ru,O
mp-976284,Eu1 Sb1 O3,4.218665,4.218665,4.218665,90.0,90.0,90.0,cubic,Pm-3m,-2.305380654,0.293074376,0.0,Eu,Sb,O
mp-22487,Eu1 Sc1 O3,5.600668,5.815825,8.023095,90.0,90.0,90.0,ortho,Pnma,-3.525944883,0.181007716,0.0,Eu,Sc,O
mp-755177,Eu1 Se1 O3,4.431882117,5.423626961,6.449863472,90.00037742,106.7273964,90.00187766,mono,P2_1/m,-2.250813653,0.0,0.0866,Eu,Se,O
mp-1069707,Eu1 Si3 Ir1,5.818493814,5.818493814,5.818493814,137.0997678,137.0997678,62.28458223,tet,I4mm,-0.720938609,0.0,0.0,Eu,Ir,Si
mp-1225162,Eu1 Si3 Ni1,5.607886525,5.607886525,5.607886525,136.7929674,136.7929674,62.75674869,tet,I4mm,-0.525360955,0.0,0.0,Eu,Ni,Si
mp-1225221,Eu1 Si3 Ni1,5.719200949,5.719200949,5.719200949,137.7193048,137.7193048,61.33316924,tet,I-4m2,-0.396470627,0.128890328,0.0,Eu,Ni,Si
mp-1068807,Eu1 Si3 Rh1,5.770062404,5.770062404,5.770062404,137.1989127,137.1989127,62.13214338,tet,I4mm,-0.73094161,0.0,0.0,Eu,Rh,Si
mp-866030,Eu1 Si1 O3,3.717735,3.717735,3.717735,90.0,90.0,90.0,cubic,Pm-3m,-3.071255264,0.25598194,0.0,Eu,Si,O
mp-862606,Eu1 Sn1 O3,4.07580535,4.0760898,4.07609181,90.0,90.0,90.0,cubic,Pm-3m,-2.542926983,0.138447412,0.0,Eu,Sn,O
mp-1184447,Eu1 Tc1 O3,3.967972,3.967972,3.967972,90.0,90.0,90.0,cubic,Pm-3m,-2.423651901,0.146448492,0.0,Eu,Tc,O
mp-1079111,Eu1 Ti1 O3,5.525466335,5.525404238,5.52540684,89.0832408,120.5302153,120.5301943,tet,I4/mcm,-3.558521974,0.0,0.0,Eu,Ti,O
mp-22246,Eu1 Ti1 O3,3.9038778,3.90388695,3.9038778,90.0,90.0,90.0,cubic,Pm-3m,-3.549383762,0.009138211,0.0,Eu,Ti,O
mp-1178346,Eu1 Tm1 O3,6.01765,8.242911,5.804322,90.0,90.0,90.0,ortho,Pnma,-3.534109468,0.233513262,0.0,Eu,Tm,O
mp-1184353,Eu1 Tm1 O3,4.268535,4.268535,4.268535,90.0,90.0,90.0,cubic,Pm-3m,-3.183594422,0.584028308,0.0,Eu,Tm,O
mp-1213318,Eu1 U1 O3,5.943666,6.174155,8.548967,90.0,90.0,90.0,ortho,Pnma,-3.48015277,0.019482793,0.0,Eu,U,O
mp-1178351,Eu1 V1 O3,5.44924128,5.44359745,7.68337572,90.0,90.0,90.0,ortho,Pnma,-2.960658723,0.029201403,0.0,Eu,V,O
mp-756315,Eu1 V1 O3,3.846793229,3.851362766,3.846974639,90.03596077,90.11370437,90.03717961,cubic,Pm-3m,-2.946617689,0.043242436,0.0,Eu,V,O
mp-1184400,Eu1 W1 O3,4.10016,4.10016,4.10016,90.0,90.0,90.0,cubic,Pm-3m,-2.403138358,0.235947857,0.0,Eu,W,O
mp-1225768,Eu1 Zn1 In3,6.783495084,6.783495084,6.783495084,139.3317524,139.3317524,58.86935701,tet,I4mm,-0.282032507,0.023140849,0.0,Eu,Zn,In
mp-1106293,Eu1 Zr1 O3,5.74546581,5.84474033,8.1659234,90.0000538,90.0001131,90.00000107,ortho,Pnma,-3.640190887,0.0,0.1866,Eu,Zr,O
mp-1178354,Eu1 Zr1 O3,8.367172,8.367172,8.367172,90.0,90.0,90.0,cubic,P2_13,-3.555797937,0.084392949,0.4663,Eu,Zr,O
mp-771055,Eu1 Zr1 O3,4.197333,4.197333,4.197333,90.0,90.0,90.0,cubic,Pm-3m,-3.5468717,0.093319187,0.3877,Eu,Zr,O
mp-1189927,Eu1 Zr1 S3,6.5652183,7.15394128,9.6658817,90.0,90.0,90.0,ortho,Pnma,-2.081383141,0.0,0.1453,Eu,Zr,S
mp-1106192,Eu1 Zr1 Se3,3.971888,8.913961,14.46718,90.0,90.0,90.0,ortho,Pnma,-1.86652883,0.024710739,0.0,Eu,Zr,Se
mp-1212650,Fe3 Co1 N1,3.675335,3.675335,3.675335,90.0,90.0,90.0,cubic,Pm-3m,-0.054404037,0.101364324,0.0,Co,N,Fe
mp-510381,Fe3 Ni1 N1,4.290839,4.290839,4.290839,90.0,90.0,90.0,cubic,Pm-3m,1.784563397,1.937313457,0.0,Ni,N,Fe
mp-567703,Fe3 Ni1 N1,3.774044,3.774044,3.774044,90.0,90.0,90.0,cubic,Pm-3m,-0.126394881,0.02635518,0.0,Ni,N,Fe
mp-16334,Fe3 Pd1 N1,3.85021387,3.85019387,3.85026736,90.0,90.0,90.0,cubic,Pm-3m,-0.197357367,0.0,0.0,Pd,N,Fe
mp-510382,Fe3 Pt1 N1,4.690942,4.690942,4.690942,90.0,90.0,90.0,cubic,Pm-3m,1.985835333,2.237165208,0.0,Pt,N,Fe
mp-579496,Fe3 Pt1 N1,3.84908392,3.84911315,3.84906827,90.0,90.0,90.0,cubic,Pm-3m,-0.251329875,0.0,0.0,Pt,N,Fe
mp-580234,Fe3 Rh1 N1,3.83973055,3.83963097,3.83894589,90.0,90.0,90.0,cubic,Pm-3m,-0.146106085,0.0,0.0,Rh,N,Fe
mp-1246554,Fe3 Sb1 N1,5.453965,5.460638927,5.460638927,60.91512315,60.04041537,60.04041537,ortho,Imma,-0.03889324,0.133949892,0.0,Sb,N,Fe
mp-1212682,Fe3 Si1 Ni1,6.109967,6.109967,6.109967,90.0,90.0,90.0,cubic,P2_13,-0.257584072,0.022208811,0.0,Si,Ni,Fe
mp-21850,Fe3 Sn1 C1,3.891169,3.891169,3.891169,90.0,90.0,90.0,cubic,Pm-3m,0.069213466,0.070303438,0.0,Sn,C,Fe
mp-1225284,Fe3 Sn1 Sb1,4.209408432,4.211204,5.39964513,90.0,89.97470684,59.98588848,trig,P3m1,0.115413535,0.163304648,0.0,Sn,Sb,Fe
mp-1184234,Fe1 Ag1 O3,3.862385,3.862385,3.862385,90.0,90.0,90.0,cubic,Pm-3m,-0.695022397,0.345864826,0.0,Fe,Ag,O
mp-1184215,Fe1 As1 O3,3.799462,3.799462,3.799462,90.0,90.0,90.0,cubic,Pm-3m,-0.885954939,0.780765044,0.0,Fe,As,O
mp-1199904,Fe1 B1 O3,3.149366497,10.364107,12.42698298,90.0,97.54344784,90.0,mono,P2_1/c,-2.178420956,0.091941376,1.5176,Fe,B,O
mp-1274711,Fe1 B1 O3,4.998054303,7.387514288,7.387745939,108.3299012,70.59003088,109.4115047,hex_,P6_3/mmc,-2.167883601,0.102478731,0.6727,Fe,B,O
mp-19097,Fe1 B1 O3,5.521964019,5.521963684,5.521963256,49.74109871,49.74109212,49.74110201,trig,R-3c,-2.270362332,0.0,1.4816,Fe,B,O
mp-849295,Fe1 B1 O3,4.988757981,8.657854,5.456182502,89.99964314,93.91656595,90.00085421,mono,C2/c,-2.167709906,0.102652426,0.513,Fe,B,O
mp-1069079,Fe1 Bi1 O3,4.879828,5.30529985,5.305304092,90.00001527,90.0000191,90.0000191,tet,P4mm,-1.64759779,0.026811494,1.3463,Fe,Bi,O
mp-1181394,Fe1 Bi1 O3,5.633780048,5.553403143,7.876305,90.0,90.0,88.12752218,mono,P2_1/m,-1.41777004,0.256639245,0.1276,Fe,Bi,O
mp-1181635,Fe1 Bi1 O3,6.220049514,5.521600696,4.465726156,90.19429886,134.1405417,89.72101115,tet,P4/mmm,0.428593821,2.103003105,0.0,Fe,Bi,O
mp-1181670,Fe1 Bi1 O3,13.32757846,5.901643516,9.528144788,100.2926582,134.3772394,75.19808407,mono,Cc,0.023686361,1.698095645,0.7019,Fe,Bi,O
mp-1181856,Fe1 Bi1 O3,8.464880463,5.388093916,5.321518785,122.2098958,142.6878026,47.91917824,mono,Cm,-1.258724855,0.415684429,1.4146,Fe,Bi,O
mp-1182718,Fe1 Bi1 O3,17.05940423,17.05940423,10.74148934,72.14831453,72.14831453,84.92418039,mono,Cc,1.739201617,3.413610901,0.0,Fe,Bi,O
mp-1193035,Fe1 Bi1 O3,5.611531675,7.944785,9.814267492,113.8758974,106.9121057,90.0,mono,C2/m,-1.617998023,0.056411261,1.6433,Fe,Bi,O
mp-22949,Fe1 Bi1 O3,5.662175,5.662543744,5.818595242,119.1188074,89.99992081,119.997981,trig,R3m,-1.640829873,0.033579411,1.7783,Fe,Bi,O
mp-23501,Fe1 Bi1 O3,5.588111297,5.58810496,5.64785525,60.35063441,119.6493773,119.9996362,trig,R3c,-1.672776781,0.001632503,1.2791,Fe,Bi,O
mp-547069,Fe1 Bi1 O3,3.944449663,3.944449663,7.892021,90.0,90.0,90.03138879,cubic,Pm-3m,-1.419096529,0.255312755,0.0,Fe,Bi,O
mp-548231,Fe1 Bi1 O3,5.498973983,5.498970038,5.498970758,59.71108546,59.71107706,59.71120248,trig,R3,-1.612286209,0.062123075,0.0,Fe,Bi,O
mp-551451,Fe1 Bi1 O3,5.430644,5.458528412,5.52404333,66.90638249,67.50512894,65.21539056,tri,P1,-1.236482167,0.437927117,1.6259,Fe,Bi,O
mp-555351,Fe1 Bi1 O3,3.944449663,3.944449663,7.892021,90.0,90.0,90.03138879,ortho,Cmcm,-1.419020091,0.255389193,0.0,Fe,Bi,O
mp-645159,Fe1 Bi1 O3,5.43632513,5.67645136,7.79673188,89.99980781,89.99999455,89.99996887,ortho,Pnma,-1.662803518,0.011605766,1.542,Fe,Bi,O
mp-654759,Fe1 Bi1 O3,5.136741823,5.136741392,5.136741335,72.09140823,72.09139949,72.09140023,trig,R3,-1.085787643,0.588621641,1.1601,Fe,Bi,O
mp-655631,Fe1 Bi1 O3,5.427758962,5.427758962,5.427757968,66.29821601,66.29821601,66.29821889,trig,R3,-1.234132039,0.440277245,1.7789,Fe,Bi,O
mp-18969,Fe1 C1 O3,5.679365808,5.67936593,5.679360259,48.88741061,48.88740146,48.88743182,trig,R-3c,-1.789805682,0.0,0.0,Fe,C,O
mp-675126,Fe1 C1 O3,6.142323901,5.117571622,5.117571498,60.39162784,60.1037854,60.10378108,mono,Cc,-0.272127701,1.517677981,1.4102,Fe,C,O
mp-22334,Fe1 Ge1 O3,6.687314112,6.687314112,5.175052625,81.47574199,81.47574199,84.79373087,mono,C2/c,-1.916730591,0.012197311,1.9617,Fe,Ge,O
mp-1096837,Fe1 Ge1 S3,6.041053343,7.717837071,7.717836921,83.75699699,83.8329352,83.83293161,mono,C2/c,-0.54133682,0.167047032,0.0357,Fe,Ge,S
mp-1080474,Fe1 N1 Cl3,6.843882284,6.843882284,5.564048,90.0,90.0,120.0000027,hex_,P6_3/mmc,0.163231123,1.094979542,0.0,Fe,N,Cl
mp-1212990,Fe1 N1 Cl3,5.609413,8.440726743,8.440726743,120.0000058,90.0,90.0,hex_,P6_3mc,0.1538671,1.085615519,0.0,Fe,N,Cl
mp-1272388,Fe1 Ni1 O3,5.051717698,5.431569312,5.051735003,62.28753419,59.99917527,89.99929357,trig,R3,-1.280436607,0.077533964,0.0,Fe,Ni,O
mp-768499,Fe1 Ni1 O3,5.055914764,5.451279583,5.0559,62.37169919,59.99972519,89.99977642,trig,R-3,-1.275920116,0.082050455,0.3842,Fe,Ni,O
mp-1232490,Fe1 P1 S3,5.860704072,7.918623163,10.11814108,68.74976132,77.18836502,75.12379224,tri,P-1,-0.555723999,0.12681538,0.4284,Fe,P,S
mp-2931287,Fe1 P1 S3,5.874893187,10.33324698,7.677210003,89.94263304,105.9053738,89.999651,mono,P2_1/m,-0.556488058,0.126051321,0.5064,Fe,P,S
mp-5864,Fe1 P1 S3,5.858327855,10.36093628,7.085563764,90.02324656,106.0406908,89.98081302,mono,C2/m,-0.550249187,0.132290192,0.206,Fe,P,S
mp-2928,Fe1 P1 Se3,7.276442602,7.276442602,7.276442369,50.13797486,50.13797486,50.13798027,trig,R-3,-0.415214129,0.111388733,0.0015,Fe,P,Se
mp-973579,Fe1 Pb1 O3,3.947544,3.947544,3.947544,90.0,90.0,90.0,cubic,Pm-3m,-1.356685949,0.198250186,0.0,Fe,Pb,O
mp-1184349,Fe1 Rh1 O3,3.898442,3.898442,3.898442,90.0,90.0,90.0,cubic,Pm-3m,-0.364199115,1.037876189,0.0,Fe,Rh,O
mp-973648,Fe1 Rh1 O3,3.770073,3.770073,3.770073,90.0,90.0,90.0,cubic,Pm-3m,-0.466947915,0.935127389,0.0,Fe,Rh,O
mp-540655,Fe1 S1 O3,7.939677485,7.92967601,7.944167014,109.2221273,109.5318351,109.66899,trig,R-3,-1.647892044,0.105119724,2.7701,Fe,S,O
mp-1199561,Fe1 Si1 O3,9.226737,5.315424,9.58724085,76.91569322,90.0,90.0,mono,P2_1/c,-2.577106231,0.015693276,0.7031,Fe,Si,O
mp-18269,Fe1 Si1 O3,5.392017584,6.776812912,6.788578601,86.18256993,75.73327589,75.75190409,mono,C2/c,-2.574583753,0.018215755,1.4522,Fe,Si,O
mp-21939,Fe1 Si1 O3,5.362383,9.229569,18.705614,90.0,90.0,90.0,ortho,Pbca,-2.577487781,0.015311727,2.7758,Fe,Si,O
mp-561362,Fe1 Si1 O3,5.367727314,6.84711151,6.847111913,80.82513351,73.39654773,73.39654754,mono,C2/c,-2.508715674,0.084083834,2.9807,Fe,Si,O
mp-650392,Fe1 Si1 O3,6.753778,7.555640724,20.89641864,84.26484862,81.20590443,84.60398827,tri,P-1,-2.56973111,0.023068398,2.7187,Fe,Si,O
mp-1178212,Fe1 Sn1 O3,5.337292043,9.084800173,5.472166757,74.37808331,68.38294472,90.25759005,tri,P-1,-1.858812262,0.0,0.862,Fe,Sn,O
mp-1178214,Fe1 Sn1 O3,5.439315,5.461441003,7.868700002,89.99699991,90.00083682,90.00018924,ortho,Pnma,-1.823627728,0.035184535,0.9864,Fe,Sn,O
mp-1207083,Fe1 Sn1 O3,4.02578,4.02578,4.02578,90.0,90.0,90.0,cubic,Pm-3m,-1.081672948,0.777139314,0.0,Fe,Sn,O
mp-1078259,Ga1 B1 O3,5.424855065,5.424855065,5.424854795,49.8960477,49.8960477,49.89606989,trig,R-3c,-2.529754526,0.003771963,3.8639,Ga,B,O
mp-1184023,Ga1 B1 O3,3.364261,3.364261,3.364261,90.0,90.0,90.0,cubic,Pm-3m,-1.126948652,1.406577837,0.0,Ga,B,O
mp-22979,Ga1 Bi1 O3,3.85294926,3.85294926,3.85294926,90.0,90.0,90.0,cubic,Pm-3m,-1.737794798,0.227707668,1.2244,Ga,Bi,O
mp-558285,Ga1 Bi1 O3,5.15381992,5.43275855,9.93184812,90.0,90.0,90.0,ortho,Pcca,-1.963496821,0.002005645,1.8794,Ga,Bi,O
mp-755568,Ga1 Bi1 O3,5.641572338,5.641572338,5.641572614,59.33723539,59.33723539,59.33722595,trig,R3c,-1.914389919,0.051112547,3.0525,Ga,Bi,O
mp-1096988,Ga1 Cu1 Br3,7.240611277,7.240611277,7.240611277,116.2860775,116.2860775,96.56286675,tet,I4/mcm,-0.49281855,0.497214014,0.0,Ga,Cu,Br
mp-1224901,Ga1 Fe3 As1,4.055707784,4.058539,4.867666,90.0,90.0,59.97689679,hex_,P-6m2,-0.104815925,0.073832833,0.0,Ga,As,Fe
mp-1212637,Ga1 Fe3 N1,3.728742,3.728742,3.728742,90.0,90.0,90.0,cubic,Pm-3m,-0.224491906,0.037878277,0.0,Ga,N,Fe
mp-1184032,Ga1 Fe1 O3,3.784658,3.784658,3.784658,90.0,90.0,90.0,cubic,Pm-3m,-1.046784079,0.941259932,0.0,Ga,Fe,O
mp-1184033,Ga1 Fe1 O3,3.811283,3.811283,3.811283,90.0,90.0,90.0,cubic,Pm-3m,-1.017339799,0.970704212,0.0,Ga,Fe,O
mp-649086,Ga1 Fe1 O3,5.167031,8.863432,9.535878,90.0,90.0,90.0,ortho,Pna2_1,-1.952254804,0.035789207,0.1724,Ga,Fe,O
mp-861324,Ga1 Fe1 O3,5.164322,8.853184748,9.527997232,89.90989574,89.90724307,89.91497385,tri,P1,2.692915952,4.680959962,0.0,Ga,Fe,O
mp-868005,Ga1 Fe1 O3,5.164622,8.859773215,9.531697297,89.96400447,89.88732827,89.93213573,tri,P1,-1.951375469,0.036668542,2.1227,Ga,Fe,O
mp-1183980,Ga1 Ge1 O3,3.754048,3.754048,3.754048,90.0,90.0,90.0,cubic,Pm-3m,-1.401622939,0.703370443,0.0,Ga,Ge,O
mp-1246681,Ga1 Mo1 N3,12.50312458,5.885700074,9.48343573,123.1159416,108.056985,117.0923301,tri,P-1,-0.178246916,0.306489437,1.0894,Ga,Mo,N
mp-1224813,Ga1 Ni3 As1,3.954186305,3.954186305,4.881622,90.0,90.0,119.9974619,hex_,P-6m2,-0.268446333,0.068055637,0.0,Ga,As,Ni
mp-1206991,Ga1 Ni3 C1,3.775591,3.775591,3.775591,90.0,90.0,90.0,cubic,Pm-3m,-0.075015127,0.157710058,0.0,Ga,C,Ni
mp-1224811,Ga1 Ni3 Sb1,4.128723013,4.128723013,4.964123,90.0,90.0,119.9922283,hex_,P-6m2,-0.136261065,0.165025191,0.0,Ga,Sb,Ni
mp-1183983,Ga1 Ni1 O3,3.671321,3.671321,3.671321,90.0,90.0,90.0,cubic,Pm-3m,-0.650788651,1.000703324,0.0,Ga,Ni,O
mp-1017563,Ga1 Pt3 C1,4.206392,4.206392,4.206392,90.0,90.0,90.0,cubic,Pm-3m,0.348587809,0.703917763,0.0,Ga,C,Pt
mp-1184206,Ga1 Si1 O3,3.576533,3.576533,3.576533,90.0,90.0,90.0,cubic,Pm-3m,-2.046275905,0.673755125,0.0,Ga,Si,O
mp-1184243,Ga1 Sn1 O3,3.872114,3.872114,3.872114,90.0,90.0,90.0,cubic,Pm-3m,-1.517511535,0.575774915,0.0,Ga,Sn,O
mp-1184220,Ga1 Te1 O3,3.887148,3.887148,3.887148,90.0,90.0,90.0,cubic,Pm-3m,-1.193745644,0.613529692,0.0,Ga,Te,O
mp-580539,Gd3 Al1 C1,4.94053157,4.93884406,4.94179571,90.0,90.0,90.0,cubic,Pm-3m,-0.340943325,0.0,0.0,Al,C,Gd
mp-1069273,Gd3 Al1 N1,5.482043,5.482043,5.482043,90.0,90.0,90.0,cubic,Pm-3m,1.016316431,1.916497476,0.0,Al,N,Gd
mp-1207153,Gd3 Ga1 C1,4.90815985,4.90811674,4.90818275,90.0,90.0,90.0,cubic,Pm-3m,-0.404805335,0.001032059,0.0,Ga,C,Gd
mp-20501,Gd3 In1 C1,5.660396,5.660396,5.660396,90.0,90.0,90.0,cubic,Pm-3m,1.545043185,1.888670382,0.0,In,C,Gd
mp-637378,Gd3 In1 N1,4.87670412,4.87457709,4.877545244,90.01681822,90.03453621,89.95861864,cubic,Pm-3m,-1.092494318,0.0,0.0,In,N,Gd
mp-19958,Gd3 Pb1 C1,5.788733,5.788733,5.788733,90.0,90.0,90.0,cubic,Pm-3m,1.526693047,1.930529828,0.0,Pb,C,Gd
mp-1207074,Gd3 Sn1 C1,4.94748706,4.9474829,4.94746415,90.0,90.0,90.0,cubic,Pm-3m,-0.60749527,0.0,0.0,Sn,C,Gd
mp-1207135,Gd3 Tl1 C1,4.96836386,4.96836698,4.96837114,90.0,90.0,90.0,cubic,Pm-3m,-0.41617198,0.0,0.0,Tl,C,Gd
mp-1076933,Gd1 Al3 Cu1,6.056301753,6.056301753,6.056301753,139.9514558,139.9514558,57.9270134,tet,I4mm,-0.48077338,0.0,0.0,Gd,Cu,Al
mp-1178268,Gd1 Al1 O3,3.735328,3.735328,3.735328,90.0,90.0,90.0,cubic,Pm-3m,-3.613716829,0.085117609,1.8885,Gd,Al,O
mp-5223,Gd1 Al1 O3,5.24264768,5.30533641,7.44562991,89.99999293,90.00005176,89.99998479,ortho,Pnma,-3.69045005,0.008384389,3.2382,Gd,Al,O