mp_id,formula,sites,composition,a_edge (angstrom),b_edge (angstrom),c_edge (angstrom),alpha_ang (deg),beta_ang (deg),gamma_ang (deg),crystal_system,space_group,total_magnetisation (bohr),energy_per_atom (eV/atom),formation_energy (eV/atom),energy_above_hull (eV/atom),stable,density (g/cc),band_gap (eV),direct_bandgap,volume (cubic-angstrom),bulk_modulus (GPa),shear_modulus (GPa)
mp-4405,Rb3AuO,5,Rb3 Au1 O1,5.50932825,5.50932825,5.50932825,90,90,90,cubic,Pm-3m,0,-3.048704132,-0.816015088,0,TRUE,4.660879718,0.1979,FALSE,167.2229753,"{'voigt': 15.595, 'reuss': 15.595, 'vrh': 15.595}","{'voigt': 9.747, 'reuss': 9.051, 'vrh': 9.399000000000001}"
mp-30055,Rb3BrO,5,Rb3 Br1 O1,5.47741978,5.47741978,5.47741978,90,90,90,cubic,Pm-3m,0,-3.405707554,-1.500405602,0.002794593,FALSE,3.559934815,0.3851,TRUE,164.3342463,,
mp-754892,Rb3ClO,5,Rb3 Cl1 O1,5.533679,5.533679,5.533679,90,90,90,cubic,Pm-3m,4.69E-05,-3.500376682,-1.552756705,0.041447582,FALSE,3.016855779,0.4794,TRUE,169.450123,"{'voigt': 17.011, 'reuss': 17.011, 'vrh': 17.011}","{'voigt': 10.63, 'reuss': 9.31, 'vrh': 9.97}"
mp-755428,Rb3ClO,20,Rb3 Cl1 O1,8.71371812,4.32145197,15.72080491,90,90,90,ortho,Pnma,0,-3.541824264,-1.594204288,0,TRUE,3.454207743,1.2234,FALSE,591.981283,,
mp-756979,Rb3ClO,20,Rb3 Cl1 O1,7.718872,7.737949,10.958862,90,90,90,ortho,Pnma,0.0010724,-3.526664055,-1.579044078,0.01516021,FALSE,3.124001751,0.9367,TRUE,654.5535164,,
mp-772199,Rb3ClO,30,Rb3 Cl1 O1,7.745880126,7.745880126,19.740944,90,90,120.0000011,hex_,P6_3/mmc,0.000153,-3.500219983,-1.552600007,0.041604281,FALSE,2.990250703,0.612,TRUE,1025.746602,,
mp-29019,Rb3IO,30,Rb3 I1 O1,7.901286808,7.901302717,19.71391187,90.00240118,89.99696374,119.9995519,hex_,P6_3/mmc,0,-3.285031566,-1.402316398,0,TRUE,3.732550007,0.634,TRUE,1065.864334,,
mp-975463,RbAcO3,5,Rb1 Ac1 O3,4.636158,4.636158,4.636158,90,90,90,cubic,Pm-3m,0.0001921,-6.215895894,-2.226777475,0.180333471,FALSE,6.006738422,0,FALSE,99.64939925,"{'voigt': 61.109, 'reuss': 61.109, 'vrh': 61.109}","{'voigt': 34.721, 'reuss': 31.954, 'vrh': 33.337}"
mp-998212,RbAgBr3,5,Rb1 Ag1 Br3,5.445471227,5.448177134,5.447170082,90.16348531,90.09040842,90.00257384,mono,Cm,0.0015185,-2.95601069,-1.209148419,0,TRUE,4.44969067,0,FALSE,161.6051935,,
mp-998226,RbAgBr3,5,Rb1 Ag1 Br3,5.446824445,5.446824445,5.447169747,89.87304177,89.87304177,90.0025736,tet,P4mm,0.0072009,-2.955828678,-1.208966407,0.000182012,FALSE,4.449688432,0,FALSE,161.6052748,,
mp-1975771,RbAgCl3,5,Rb1 Ag1 Cl3,5.08785996,5.08795536,5.084282022,90.0552484,90,90,cubic,Pm-3m,0.254403,-3.290650806,-1.41683446,0.001968154,FALSE,3.781122282,0,FALSE,131.6157528,,
mp-998201,RbAgCl3,5,Rb1 Ag1 Cl3,5.165475,5.167096,5.169283149,89.9367553,90,90,mono,Pm,0.0004494,-3.29261896,-1.418802614,0,TRUE,3.606963467,0,FALSE,137.9706948,,
mp-1055491,RbAgF3,5,Rb1 Ag1 F3,4.352208895,6.145367685,6.144904236,119.9466536,90.06301513,44.90681261,cubic,Pm-3m,9.00E-07,-4.042720291,-2.13113856,0,TRUE,5.058941088,0,FALSE,82.16833244,,
mp-7767,RbAgF3,10,Rb1 Ag1 F3,6.152127494,6.152127444,6.152127544,90.35099543,119.797568,119.7975524,tet,I4/mcm,7.30E-06,-4.041566687,-2.129984956,0.001153604,FALSE,5.034021617,0,FALSE,165.1501661,,
mp-867844,RbAgF3,5,Rb1 Ag1 F3,4.295127694,4.295127694,4.364427,90,90,104.566234,ortho,Cmmm,0.0018183,-3.92832923,-2.016747499,0.114391061,FALSE,5.334248671,0,FALSE,77.92751683,,
mp-975421,RbAgO3,5,Rb1 Ag1 O3,4.255792,4.255792,4.255792,90,90,90,cubic,Pm-3m,1.7666718,-4.18720649,-0.453735537,0.353712061,FALSE,5.199083434,0,FALSE,77.07990692,,
mp-975427,RbAlO3,5,Rb1 Al1 O3,3.94407,3.94407,3.94407,90,90,90,cubic,Pm-3m,1.9975117,-5.839371856,-1.925373273,0.379654708,FALSE,4.342584858,0,FALSE,61.35272302,"{'voigt': 112.414, 'reuss': 112.414, 'vrh': 112.414}","{'voigt': 41.106, 'reuss': 40.904, 'vrh': 41.005}"
mp-975425,RbAsO3,5,Rb1 As1 O3,3.939416,3.939416,3.939416,90,90,90,cubic,Pm-3m,4.79E-05,-5.457235226,-1.358327302,0.205453434,FALSE,5.66011737,0,FALSE,61.13579068,"{'voigt': 102.651, 'reuss': 102.651, 'vrh': 102.651}","{'voigt': 103.519, 'reuss': 99.394, 'vrh': 101.456}"
mp-1110999,RbAuBr3,5,Rb1 Au1 Br3,5.43699,5.43699,5.43699,90,90,90,cubic,Pm-3m,0.0006282,-2.971952624,-1.138901488,0.046297393,FALSE,5.394680852,0,FALSE,160.7221016,,
mp-27300,RbAuBr3,10,Rb1 Au1 Br3,7.400640239,7.349293435,8.4963451,62.5645301,64.18166802,59.76861089,mono,C2/m,0,-3.018250017,-1.185198882,0,TRUE,5.075649374,0.7293,FALSE,341.648676,,
mp-1110791,RbAuCl3,5,Rb1 Au1 Cl3,5.163533,5.163533,5.163533,90,90,90,cubic,Pm-3m,0.0010394,-3.282813208,-1.322807997,0.053702937,FALSE,4.689505785,0,FALSE,137.670494,,
mp-1111644,RbAuF3,5,Rb1 Au1 F3,4.514405,4.514405,4.514405,90,90,90,cubic,Pm-3m,0.0027593,-3.911658436,-1.913887841,0.126595741,FALSE,6.126285436,0,FALSE,92.00290804,,
mp-568666,RbAuI3,10,Rb1 Au1 I3,7.912646931,7.912647766,8.795059566,65.49520593,65.49519854,60.68249464,mono,C2/m,0,-2.675341361,-0.910050577,0,TRUE,5.230695887,0.7061,FALSE,421.0463838,,
mp-975405,RbAuO3,5,Rb1 Au1 O3,4.21732,4.21732,4.21732,90,90,90,cubic,Pm-3m,1.3788963,-4.343844862,-0.524185045,0.384799886,FALSE,7.315133863,0,FALSE,75.00835937,,
mp-975385,RbBO3,5,Rb1 B1 O3,3.69368,3.69368,3.69368,90,90,90,cubic,Pm-3m,1.999727,-5.09859014,-0.597828368,1.499975552,FALSE,4.754100925,0,FALSE,50.39388071,"{'voigt': 123.719, 'reuss': 123.719, 'vrh': 123.719}","{'voigt': 46.853, 'reuss': -168.421, 'vrh': -60.784}"
mp-9047,RbBS3,20,Rb1 B1 S3,5.832857965,7.125645593,11.91701952,90,90,104.6840345,mono,P2_1/c,0,-5.031868422,-1.016867513,0,TRUE,2.66826525,2.4085,FALSE,479.128174,,
mp-10552,RbBSe3,20,Rb1 B1 Se3,12.701163,6.283839,7.50395862,75.34263111,90,90,mono,P2_1/c,0.0011573,-4.462325289,-0.832793234,0,TRUE,3.819179355,1.6569,FALSE,579.4157869,,
mp-1219638,RbBaN3,20,Rb1 Ba1 N3,15.27436697,14.93698282,6.809731136,79.75575325,74.2219897,26.02225705,ortho,Fddd,24.0019858,-4.277327438,1.305541012,1.793950969,FALSE,2.715455376,0,FALSE,647.7521092,,
mp-975387,RbBaO3,5,Rb1 Ba1 O3,4.995185,4.995185,4.995185,90,90,90,cubic,Pm-3m,3,-4.828164082,-1.279485676,0.515827346,FALSE,3.607711488,0,FALSE,124.6392227,,
mp-975031,RbBeH3,20,Rb1 Be1 H3,5.893298,7.353153,9.402904364,73.82387418,90,90,mono,P2_1/c,0.0001366,-3.172712765,-0.191623515,0.001487195,FALSE,1.654931448,3.3379,TRUE,391.3367471,,
mp-1197886,RbBeN3,80,Rb1 Be1 N3,8.430366,14.111112,15.125707,90,90,90,ortho,Pbca,16,-5.092030375,0.854925659,1.347948162,FALSE,2.015480684,0,FALSE,1799.381918,,
mp-975394,RbBeO3,5,Rb1 Be1 O3,3.881145,3.881145,3.881145,90,90,90,cubic,Pm-3m,3,-4.961337694,-1.048571704,0.775926795,FALSE,4.046856991,0,FALSE,58.46279913,"{'voigt': 84.653, 'reuss': 84.653, 'vrh': 84.653}","{'voigt': 27.467, 'reuss': 0.275, 'vrh': 13.871}"
mp-1173046,RbBiF3,10,Rb1 Bi1 F3,4.260722,4.260722,12.904108,90,90,90,tet,P4/nmm,0.0036833,-4.424616943,-2.303615886,0.38790871,FALSE,4.982417432,0,FALSE,234.2579759,,
mp-677028,RbBiF3,10,Rb1 Bi1 F3,5.026896,5.161673373,8.672505136,96.27132868,92.60776584,96.62099661,tri,P1,0.0002713,-4.658075654,-2.537074597,0.154449999,FALSE,5.262176763,1.3584,FALSE,221.8038419,,
mp-975384,RbBiO3,5,Rb1 Bi1 O3,4.259822,4.259822,4.259822,90,90,90,cubic,Pm-3m,0.0005203,-5.390518846,-1.447628567,0,TRUE,7.356434052,0,FALSE,77.29908559,,
mp-28872,RbBrO3,5,Rb1 Br1 O3,4.4669857,4.466985267,4.466986082,87.66332651,87.66333298,87.66332228,trig,R3m,0,-4.545229842,-1.052957117,0,TRUE,3.984692341,3.9953,TRUE,88.91758518,,
mp-31271,RbCO3,40,Rb1 C1 O3,10.710959,7.878144,8.044678632,78.49516639,90,90,mono,P2_1/c,0.0012585,-6.735221038,-1.724604522,0.057108609,FALSE,2.905268686,3.9411,FALSE,665.190782,,
mp-1209227,RbCaBr3,5,Rb1 Ca1 Br3,5.73669,5.73669,5.73669,90,90,90,cubic,Pm-3m,0.0002462,-3.839853948,-2.260459237,0.023744038,FALSE,3.212657664,4.0839,FALSE,188.792243,,
mp-1209238,RbCaBr3,20,Rb1 Ca1 Br3,7.78124338,8.11548266,11.15646626,90,90,90,ortho,Pnma,0,-3.863515468,-2.284120757,8.25E-05,FALSE,3.443646615,4.626,FALSE,704.5146197,,
mp-998198,RbCaBr3,5,Rb1 Ca1 Br3,5.743071221,5.743071221,5.740425791,89.93769462,89.93769462,90.02605915,mono,Cm,2.66E-05,-3.839356738,-2.259962026,0.024241248,FALSE,3.203440368,4.0722,FALSE,189.3354571,,
mp-998536,RbCaBr3,20,Rb1 Ca1 Br3,4.37789821,9.69260383,16.09469918,90,90,90,ortho,Pnma,0,-3.863597986,-2.284203274,0,TRUE,3.552381521,4.2996,TRUE,682.9501197,,
mp-2795318,RbCaCl3,5,Rb1 Ca1 Cl3,5.429531644,5.429531644,5.428881476,89.99169433,89.99169433,90.0011108,tet,P4mm,0,-4.309335812,-2.602987026,0.01025158,FALSE,2.406155813,4.9651,FALSE,160.0424121,,
mp-998197,RbCaCl3,5,Rb1 Ca1 Cl3,5.377697661,5.377491184,5.377211409,90.01122959,90.04305037,90.00225986,mono,Cm,0,-4.306492394,-2.600143608,0.013094998,FALSE,2.476428343,4.9577,FALSE,155.5009581,,
mp-998324,RbCaCl3,10,Rb1 Ca1 Cl3,7.507942488,7.507942488,7.507942709,60.88403643,60.88403643,60.88404753,trig,R3c,0,-4.319587392,-2.613238606,0,TRUE,2.523313971,5.3844,FALSE,305.2231982,,
mp-3654,RbCaF3,5,Rb1 Ca1 F3,4.45428814,4.45428814,4.45428814,90,90,90,cubic,Pm-3m,0,-5.46258844,-3.718474269,0,TRUE,3.429846023,6.3971,FALSE,88.37611824,"{'voigt': 48.191, 'reuss': 48.191, 'vrh': 48.191}","{'voigt': 28.028, 'reuss': 24.777, 'vrh': 26.403}"
mp-23949,RbCaH3,5,Rb1 Ca1 H3,4.52097295,4.52097295,4.52097295,90,90,90,cubic,Pm-3m,0,-3.11397772,-0.479651066,0.017971986,FALSE,2.310424239,3.2736,TRUE,92.40505411,,
mp-998325,RbCaI3,5,Rb1 Ca1 I3,6.21013772,6.21013772,6.207693177,89.95899442,89.95899442,89.94564297,mono,Cm,0.0033579,-3.28088973,-1.76925537,0.045907286,FALSE,3.511476336,3.4334,FALSE,239.4044885,,
mp-998592,RbCaI3,20,Rb1 Ca1 I3,4.69371084,10.46897138,17.37418299,90,90,90,ortho,Pnma,0,-3.326797016,-1.815162657,0,TRUE,3.938739796,3.5985,TRUE,853.7382408,,
mp-975382,RbCaO3,5,Rb1 Ca1 O3,4.616624,4.616624,4.616624,90,90,90,cubic,Pm-3m,3,-5.050003676,-1.484000282,0.421763652,FALSE,2.92876945,0,FALSE,98.39510985,"{'voigt': 40.141, 'reuss': 40.141, 'vrh': 40.141}","{'voigt': 15.98, 'reuss': 2.444, 'vrh': 9.212}"
mp-27400,RbCdBr3,20,Rb1 Cd1 Br3,4.2474237,9.55090906,15.79276485,90,90,90,ortho,Pnma,0,-2.930630724,-1.56035395,0,TRUE,4.536791355,2.7536,FALSE,640.6612619,,
mp-23390,RbCdCl3,20,Rb1 Cd1 Cl3,4.05372776,9.04405641,15.05258048,90,90,90,ortho,Pnma,0,-3.317302857,-1.820072008,0,TRUE,3.661790228,3.5562,FALSE,551.859851,,
mp-6951,RbCdF3,5,Rb1 Cd1 F3,4.42498073,4.42498073,4.42498073,90,90,90,cubic,Pm-3m,0,-4.23332982,-2.698333587,0,TRUE,4.884729257,3.1745,FALSE,86.64313367,"{'voigt': 55.222, 'reuss': 55.222, 'vrh': 55.222}","{'voigt': 24.357, 'reuss': 21.32, 'vrh': 22.838}"
mp-1209203,RbCdN3,5,Rb1 Cd1 N3,4.58767,4.58767,4.58767,90,90,90,cubic,Pm-3m,5.7175486,-3.724787012,1.666288488,1.778451935,FALSE,4.12573037,0,FALSE,96.55538772,,
mp-975380,RbCdO3,5,Rb1 Cd1 O3,4.465707,4.465707,4.465707,90,90,90,cubic,Pm-3m,2.9774204,-4.075698602,-0.718813146,0.40300357,FALSE,4.584545926,0,FALSE,89.05753605,"{'voigt': 38.168, 'reuss': 38.168, 'vrh': 38.168}","{'voigt': 6.354, 'reuss': -12.061, 'vrh': -2.852999999999999}"
mp-23011,RbClO3,5,Rb1 Cl1 O3,4.597086472,4.597086472,4.597086451,83.9676627,83.9676627,83.96766039,trig,R3m,0.0002745,-4.678860798,-1.144270049,0.065171114,FALSE,2.932751092,5.3288,TRUE,95.64282469,,
mp-1206319,RbCoBr3,10,Rb1 Co1 Br3,7.428611311,7.427502151,6.24458767,89.99999801,90.00002782,119.9955173,hex_,P6_3/mmc,6.0090214,-3.833192164,-1.228234084,0.016217684,FALSE,4.274975769,0,FALSE,298.4038594,,
mp-1209410,RbCoBr3,30,Rb1 Co1 Br3,13.07014869,13.07014869,6.209557,90,90,120.0000035,trig,P-3c1,2.9058598,-3.69873785,-1.09377977,0.150671998,FALSE,4.165882888,0,FALSE,918.6546784,,
mp-1209412,RbCoBr3,30,Rb1 Co1 Br3,13.05552585,13.05552585,6.230356,90,90,119.9999992,hex_,P6_3cm,3.9830963,-3.653978307,-1.049020228,0.195431541,FALSE,4.161281659,0,FALSE,919.6704571,,
mp-1209578,RbCoBr3,30,Rb1 Co1 Br3,12.91575753,12.91575753,6.243637,90,90,119.9999976,trig,P3c1,1.8066142,-3.785360497,-1.180402418,0.064049351,FALSE,4.242787623,0,FALSE,902.003151,,
mp-27707,RbCoCl3,10,Rb1 Co1 Cl3,7.01762171,7.01762004,5.94230516,90,90,119.9999895,hex_,P6_3/mmc,5.9996808,-4.257212357,-1.525300202,0.002501066,FALSE,3.286032948,0,FALSE,253.4343232,,
mp-541814,RbCoF3,30,Rb1 Co1 F3,6.013009642,6.013009642,14.722671,90,90,119.9999961,hex_,P6_3/mmc,18.0000018,-5.392403945,-2.622726406,0,TRUE,4.352618193,0,FALSE,461.0001394,,
mp-30027,RbCrCl3,20,Rb1 Cr1 Cl3,7.057032761,7.057032761,12.74991915,86.08378263,86.08378263,59.5785992,mono,C2/c,15.9999998,-4.975830422,-1.739992118,0.019588501,FALSE,2.966949293,0.5095,FALSE,545.8501792,,
mp-568864,RbCrCl3,20,Rb1 Cr1 Cl3,7.185303509,7.185303509,12.82195607,87.60145923,87.60145923,59.62082835,mono,C2,15.9995314,-4.973847344,-1.73800904,0.02157158,FALSE,2.839136311,0.399,FALSE,570.4234055,,
mp-568887,RbCrCl3,10,Rb1 Cr1 Cl3,6.312599656,7.101332,7.135485875,60.15820964,88.0210188,90,mono,C2/m,8.0000419,-4.967128819,-1.731290515,0.028290105,FALSE,2.920825608,0.1195,FALSE,277.2349363,,
mp-1206325,RbCrF3,5,Rb1 Cr1 F3,4.414319,4.414319,4.098647,90,90,90,tet,P4/mmm,3.9988478,-6.16967071,-2.896067021,0.010353354,FALSE,4.043053108,0.9717,FALSE,79.86710531,,
mp-27442,RbCrI3,20,Rb1 Cr1 I3,8.11166476,8.11166476,14.42091642,84.76938546,84.76938546,60.11998986,mono,C2,16.0062499,-4.041520809,-1.000396931,0.063565573,FALSE,4.20671245,0.1685,FALSE,818.172078,,
mp-676553,RbCrI3,10,Rb1 Cr1 I3,8.084576417,8.084576417,7.025221132,85.40497228,85.40497228,60.17367567,mono,C2/m,7.9993608,-4.037549546,-0.996425669,0.067536835,FALSE,4.338747845,0,FALSE,396.6368628,,
mp-1076360,RbCrO3,5,Rb1 Cr1 O3,3.94693,3.94693,3.94693,90,90,90,cubic,Pm-3m,0.9996848,-6.653205036,-1.557712125,0.508016843,FALSE,5.00871128,0,FALSE,61.48628763,,
mp-998196,RbCuBr3,5,Rb1 Cu1 Br3,5.14688603,5.153862302,5.132402376,90.01348162,90.05831959,90.02353057,cubic,Pm-3m,0.2634764,-3.198902856,-1.200786787,0.013992916,FALSE,4.741269884,0,FALSE,136.1437743,"{'voigt': 30.662, 'reuss': 30.662, 'vrh': 30.662}","{'voigt': 13.184, 'reuss': 13.128, 'vrh': 13.156}"
mp-1232302,RbCuCl3,10,Rb1 Cu1 Cl3,6.936351628,6.936351628,6.936351628,117.6099033,117.6099033,94.19215198,tet,I4/mcm,0,-3.609785512,-1.484715367,0.000887256,FALSE,3.478712354,0,FALSE,243.800848,,
mp-23055,RbCuCl3,20,Rb1 Cu1 Cl3,6.22716955,7.04645449,11.80800118,90,90,90,ortho,Pbcn,3.8882162,-3.610672768,-1.485602623,0,TRUE,3.273753662,0.1859,TRUE,518.1287962,,
mp-568857,RbCuCl3,20,Rb1 Cu1 Cl3,6.992945,7.037086206,12.56544249,90.53775336,90,119.792723,mono,C2/c,3.9999218,-3.587514784,-1.46244464,0.023157984,FALSE,3.161144977,0,FALSE,536.5859699,,
mp-569526,RbCuCl3,10,Rb1 Cu1 Cl3,7.060612556,7.060612556,5.974634,90,90,120.0000052,hex_,P6_3/mmc,1.9991049,-3.559780761,-1.434710616,0.050892007,FALSE,3.28796401,0,FALSE,257.94474,"{'voigt': -507044.679, 'reuss': 36226.062, 'vrh': -235409.309}","{'voigt': -649552.251, 'reuss': -1636.228, 'vrh': -325594.239}"
mp-571305,RbCuCl3,20,Rb1 Cu1 Cl3,7.048828326,7.048828326,12.58885775,89.36597372,89.36597372,59.51852065,mono,C2,3.9998867,-3.587874448,-1.462804303,0.02279832,FALSE,3.146992936,0,FALSE,538.9989995,,
mp-554601,RbCuF3,5,Rb1 Cu1 F3,4.06660228,4.07169097,4.07169097,90,90,90,cubic,Pm-3m,0.9999962,-4.469908135,-2.307072606,0.031564307,FALSE,5.074041258,0,FALSE,67.41884647,"{'voigt': 69.734, 'reuss': 69.734, 'vrh': 69.734}","{'voigt': 32.02, 'reuss': 30.989, 'vrh': 31.504}"
mp-8858,RbCuF3,10,Rb1 Cu1 F3,5.787292199,5.785407385,5.785407801,94.27056081,117.5560465,117.5560597,tet,I4/mcm,0,-4.501472442,-2.338636913,0,TRUE,4.830880661,0,FALSE,141.6246985,,
mp-975364,RbCuO3,5,Rb1 Cu1 O3,4.046069,4.046069,4.046069,90,90,90,cubic,Pm-3m,2.175724,-4.643878798,-0.659154047,0.426995967,FALSE,4.939032944,0,FALSE,66.23687801,"{'voigt': 84.711, 'reuss': 84.711, 'vrh': 84.711}","{'voigt': 32.21, 'reuss': 31.775, 'vrh': 31.992}"
mp-1219609,RbCuS3,5,Rb1 Cu1 S3,4.181384,3.480629,7.901201,90,90,90,ortho,Pmm2,0.029464,-3.916825926,-0.417862037,0.365584341,FALSE,3.540904812,0,FALSE,114.9928658,,
mp-1209279,RbDyBr3,20,Rb1 Dy1 Br3,7.700161,8.235993,11.258521,90,90,90,ortho,Pnma,0.0735224,-3.984035532,-1.88208569,0.129484077,FALSE,4.536769757,0,FALSE,713.9981999,,
mp-1206194,RbDyI3,10,Rb1 Dy1 I3,8.283960585,8.283960585,11.75734,90,90,148.6470907,ortho,Cmcm,0.9605605,-3.496296397,-1.462106908,0.097186222,FALSE,4.97352152,0,FALSE,419.8030331,,
mp-1209272,RbDyI3,20,Rb1 Dy1 I3,8.229636,8.726612,11.982103,90,90,90,ortho,Pnma,1.8566759,-3.46748689,-1.4332974,0.125995729,FALSE,4.85266406,0,FALSE,860.5167773,,
mp-975386,RbDyO3,5,Rb1 Dy1 O3,4.519148,4.519148,4.519148,90,90,90,cubic,Pm-3m,1.9958478,-6.374110226,-2.285551703,0.255247988,FALSE,5.3250198,0,FALSE,92.29319774,,
mp-975361,RbErO3,5,Rb1 Er1 O3,4.494243,4.494243,4.494243,90,90,90,cubic,Pm-3m,1.9955363,-6.397034038,-2.318606859,0.248216991,FALSE,5.501092898,0,FALSE,90.77570949,,
mp-1206801,RbEuCl3,5,Rb1 Eu1 Cl3,5.655825,5.655825,5.655825,90,90,90,cubic,Pm-3m,6.9977156,-5.910670828,-2.547819635,0.03837239,FALSE,3.155407535,0.4542,TRUE,180.920546,,
mp-1206518,RbFeCl3,5,Rb1 Fe1 Cl3,4.93010805,4.93013288,4.93012564,90,90,90,cubic,Pm-3m,4.0000018,-4.547405426,-1.548172373,0.070703025,FALSE,3.432042116,0,FALSE,119.8320667,,
mp-1206560,RbFeCl3,10,Rb1 Fe1 Cl3,6.979655649,6.979655649,5.872783,90,90,119.9999967,hex_,P6_3/mmc,8,-4.515008522,-1.515775469,0.103099929,FALSE,3.319808711,0.3602,FALSE,247.7665043,,
mp-554465,RbFeF3,5,Rb1 Fe1 F3,4.220695,4.220695,4.220695,90,90,90,cubic,Pm-3m,4.0002245,-5.528833986,-2.491835549,0.266142958,FALSE,4.379630216,0,FALSE,75.18858463,,
mp-975322,RbFeO3,5,Rb1 Fe1 O3,4.045439,4.045439,4.045439,90,90,90,cubic,Pm-3m,5.4673062,-6.023394786,-1.164507126,0.266845016,FALSE,4.748188766,0,FALSE,66.20594225,,
mp-975308,RbGdO3,5,Rb1 Gd1 O3,4.472071,4.472071,4.472071,90,90,90,cubic,Pm-3m,5.003271,-8.289154804,-2.309046939,0.176935758,FALSE,5.397491439,0,FALSE,89.43882186,,
mp-1120721,RbGeBr3,10,Rb1 Ge1 Br3,7.45264327,6.152178918,8.145619223,74.1795581,90,90,mono,P2_1/m,0,-3.521180597,-1.41830029,0,TRUE,3.676821055,3.1238,FALSE,359.3296,,
mp-28558,RbGeBr3,20,Rb1 Ge1 Br3,7.62829121,8.26688561,11.30344188,90,90,90,ortho,Pna2_1,0,-3.519707474,-1.416827168,0.001473122,FALSE,3.706940248,1.9851,TRUE,712.820035,,
mp-1120729,RbGeCl3,20,Rb1 Ge1 Cl3,7.29946596,7.98976514,10.8443874,90,90,90,ortho,Pna2_1,0,-3.902282504,-1.672448122,0.018935774,FALSE,2.777474782,2.5704,TRUE,632.45572,,
mp-27369,RbGeCl3,10,Rb1 Ge1 Cl3,5.834404792,6.98791184,7.952852245,90,105.8771394,90,mono,P2_1/m,0,-3.921218277,-1.691383896,0,TRUE,2.816279615,3.7529,FALSE,311.8706331,,
mp-567855,RbGeI3,20,Rb1 Ge1 I3,4.69061112,10.30008669,16.90456321,90,90,90,ortho,P2_12_12_1,0,-3.065395051,-1.030275096,0.005060806,FALSE,4.382072002,2.1987,FALSE,816.7220153,,
mp-571458,RbGeI3,5,Rb1 Ge1 I3,5.91458197,5.91458197,5.91458197,90,90,90,cubic,Pm-3m,0,-3.057070348,-1.021950394,0.013385509,FALSE,4.324357746,0.554,TRUE,206.9055618,"{'voigt': 18.094, 'reuss': 18.094, 'vrh': 18.094}","{'voigt': 10.882, 'reuss': 9.454, 'vrh': 10.168}"
mp-1186885,RbGeO3,5,Rb1 Ge1 O3,3.948621,3.948621,3.948621,90,90,90,cubic,Pm-3m,1.000886,-5.576472036,-1.486983048,0.419926688,FALSE,5.559085832,0,FALSE,61.56534999,,
mp-7482,RbHgF3,5,Rb1 Hg1 F3,4.54921913,4.54921913,4.54921913,90,90,90,cubic,Pm-3m,0,-3.636118128,-2.231189525,0,TRUE,6.050618362,0.6454,FALSE,94.14788544,"{'voigt': 50.69, 'reuss': 50.69, 'vrh': 50.69}","{'voigt': 16.616, 'reuss': 13.128, 'vrh': 14.872}"
mp-1186886,RbHgO3,5,Rb1 Hg1 O3,4.378672,4.378672,4.378672,90,90,90,cubic,Pm-3m,1.5159997,-3.700536122,-0.473718297,0.363660874,FALSE,6.607560251,0,FALSE,83.95126452,,
mp-975296,RbHoO3,5,Rb1 Ho1 O3,4.497734,4.497734,4.497734,90,90,90,cubic,Pm-3m,1.9993839,-6.384995896,-2.300576585,0.251479938,FALSE,5.445794619,0,FALSE,90.98740981,"{'voigt': 66.13, 'reuss': 66.13, 'vrh': 66.13}","{'voigt': 19.389, 'reuss': -4.766, 'vrh': 7.311}"
mp-1179783,RbIO3,5,Rb1 I1 O3,7.534233304,6.955180104,5.467492271,71.20474656,133.55121,117.8795321,mono,Cm,2.38E-05,-3.848607274,-0.378921333,0.99360821,FALSE,2.355550734,0.408,FALSE,183.5474528,,