mp_id,formula,sites,composition,a_edge (angstrom),b_edge (angstrom),c_edge (angstrom),alpha_ang (deg),beta_ang (deg),gamma_ang (deg),crystal_system,space_group,total_magnetisation (bohr),energy_per_atom (eV/atom),formation_energy (eV/atom),energy_above_hull (eV/atom),stable,density (g/cc),band_gap (eV),direct_bandgap,volume (cubic-angstrom),bulk_modulus (GPa),shear_modulus (GPa)
mp-3033,RbTaO3,20,Rb1 Ta1 O3,6.430271023,6.430269925,8.168089365,86.24770949,86.24770814,83.070555,mono,C2/m,0,-8.570600906,-3.032331979,0,TRUE,6.25290629,3.5412,FALSE,333.9864739,,
mp-755018,RbTaO3,5,Rb1 Ta1 O3,4.091552947,4.091552947,4.091552425,89.91297528,89.91297528,89.91298191,trig,R3m,0.0004586,-8.518033926,-2.979765,0.05256698,FALSE,7.622331587,2.5106,FALSE,68.49564662,,
mp-780619,RbTaO3,20,Rb1 Ta1 O3,5.107742723,8.462529295,8.994656362,114.2673281,93.68768393,94.53177721,tri,P-1,0,-8.560403998,-3.022135071,0.010196908,FALSE,5.944452665,4.1149,FALSE,351.3168059,,
mp-858693,RbTaO3,20,Rb1 Ta1 O3,9.111957,8.579852331,5.173779565,94.58254888,93.74137273,114.1937909,tri,P-1,0.3116478,-6.185109389,-0.646840463,2.385491517,FALSE,5.711706505,0,FALSE,365.6326041,,
mp-980058,RbTbO3,5,Rb1 Tb1 O3,4.535039,4.535039,4.535039,90,90,90,cubic,Pm-3m,1.9998475,-6.363580492,-2.27112435,0.258242988,FALSE,5.20559695,0,FALSE,93.27023664,"{'voigt': 60.84, 'reuss': 60.84, 'vrh': 60.84}","{'voigt': 21.297, 'reuss': 3.8040000000000003, 'vrh': 12.55}"
mp-975190,RbTeO3,5,Rb1 Te1 O3,4.172344,4.172344,4.172344,90,90,90,cubic,Pm-3m,0.0003029,-5.36641869,-1.572874094,0.142506814,FALSE,5.968416044,0,FALSE,72.63406049,"{'voigt': 122.161, 'reuss': 122.161, 'vrh': 122.161}","{'voigt': 88.842, 'reuss': 87.546, 'vrh': 88.194}"
mp-569807,RbTiBr3,10,Rb1 Ti1 Br3,7.502893943,7.516679307,6.457902759,89.80906724,90.01490505,119.9339419,hex_,P6_3/mmc,4.0000002,-4.444833229,-1.68746009,0.004297471,FALSE,3.925362135,0,FALSE,315.6186685,"{'voigt': 14599801.933, 'reuss': -20763232.521, 'vrh': -3081715.294}","{'voigt': 300083.506, 'reuss': 52.323, 'vrh': 150067.914}"
mp-28282,RbTiCl3,10,Rb1 Ti1 Cl3,7.231210848,7.232133718,5.70584475,90.10082694,89.76850655,120.0044219,hex_,P6_3/mmc,2.3350699,-4.913430387,-2.029103173,0,TRUE,3.080567691,0,FALSE,258.4075137,,
mp-27812,RbTiI3,30,Rb1 Ti1 I3,14.13681755,14.13681755,7.009562,90,90,119.9999979,hex_,P6_3cm,9.1732099,-3.881694807,-1.19208202,0.067067689,FALSE,4.221622254,0,FALSE,1213.178845,,
mp-1114101,RbTlBr3,10,Rb1 Tl1 Br3,8.344349336,8.344349336,8.344349336,60,60,60,cubic,Fm-3m,0.0073325,-3.04419525,-1.391626091,0.025314896,FALSE,4.280893013,0.9634,FALSE,410.8302698,,
mp-998391,RbTlBr3,5,Rb1 Tl1 Br3,5.836054919,5.836054919,5.833034045,89.96607963,89.96607963,90.00744189,mono,Cm,0.0001549,-3.045796146,-1.393226987,0.023714,FALSE,4.426227354,0,FALSE,198.6703677,,
mp-998606,RbTlBr3,10,Rb1 Tl1 Br3,8.227679174,8.227679174,8.227679052,60.01287335,60.01287335,60.0128728,trig,R3c,0.0013538,-3.042998968,-1.390429809,0.026511178,FALSE,4.464296591,0,FALSE,393.9524168,,
mp-1113994,RbTlCl3,10,Rb1 Tl1 Cl3,7.96497382,7.96497382,7.96497382,60,60,60,cubic,Fm-3m,0.0003421,-3.410039869,-1.630516635,0.030693202,FALSE,3.682701979,1.1539,FALSE,357.3041497,,
mp-1113914,RbTlF3,10,Rb1 Tl1 F3,6.688565187,6.688565187,6.688565187,60,60,60,cubic,Fm-3m,0,-4.297066624,-2.479778006,0,TRUE,5.444177506,2.0588,FALSE,211.5845218,,
mp-1410049,RbTlF3,5,Rb1 Tl1 F3,4.749462396,4.749462396,4.746798926,89.59303074,89.59303074,89.62412116,ortho,Amm2,0.0009934,-4.244449408,-2.42716079,0.052617216,FALSE,5.379322077,0,FALSE,107.0677381,,
mp-998434,RbTlF3,40,Rb1 Tl1 F3,6.644351,9.293565,13.383602,90,90,90,ortho,Pbam,0.0059681,-4.255312056,-2.438023437,0.041754568,FALSE,5.575300007,0,FALSE,826.4335142,,
mp-998607,RbTlF3,5,Rb1 Tl1 F3,4.746798483,4.74972494,4.749199623,89.62412529,89.34258805,89.8434481,mono,Cm,2.60E-06,-4.24420102,-2.426912402,0.052865604,FALSE,5.379426317,0,FALSE,107.0656634,,
mp-1114149,RbTlI3,10,Rb1 Tl1 I3,8.89621648,8.89621648,8.89621648,60,60,60,cubic,Fm-3m,0.0006417,-2.608860744,-1.024051937,0.091221131,FALSE,4.473203211,0,FALSE,497.8528866,,
mp-975179,RbTlO3,5,Rb1 Tl1 O3,4.465736,4.465736,4.465736,90,90,90,cubic,Pm-3m,1.9987851,-4.426606022,-0.787428181,0.322265232,FALSE,6.29931005,0,FALSE,89.05927107,,
mp-1209127,RbTmBr3,20,Rb1 Tm1 Br3,7.597736,8.098051,11.13366,90,90,90,ortho,Pnma,0.3040298,-3.912828185,-1.838053153,0.162648542,FALSE,4.791081908,0,FALSE,685.019069,,
mp-1209132,RbTmI3,20,Rb1 Tm1 I3,8.243836,8.641627,11.937015,90,90,90,ortho,Pnma,0.4812485,-3.390198706,-1.383184026,0.159120594,FALSE,4.960679237,0,FALSE,850.3948079,,
mp-1209166,RbTmI3,20,Rb1 Tm1 I3,4.321601,10.245713,17.966225,90,90,90,ortho,Pnma,4.0006406,-3.493607322,-1.486592642,0.055711978,FALSE,5.302956418,0.2353,TRUE,795.5064183,,
mp-981550,RbTmO3,5,Rb1 Tm1 O3,4.455645,4.455645,4.455645,90,90,90,cubic,Pm-3m,1.9995024,-6.401446674,-2.340062961,0.243250292,FALSE,5.676745724,0,FALSE,88.45690593,"{'voigt': 74.212, 'reuss': 74.212, 'vrh': 74.212}","{'voigt': 22.355, 'reuss': -4.88, 'vrh': 8.738}"
mp-11775,RbUO3,5,Rb1 U1 O3,4.32836957,4.32837261,4.32837261,90,90,90,cubic,Pm-3m,0.9999999,-8.72775054,-3.30458512,0,TRUE,7.607261576,0.4542,FALSE,81.09117913,,
mp-29314,RbVBr3,30,Rb1 V1 Br3,12.90835489,12.90826948,6.46967678,89.99976785,90.00013511,119.9992924,hex_,P6_3cm,18.0000007,-4.543966396,-1.548910446,6.27E-05,FALSE,4.01396003,0.619,FALSE,933.5879398,,
mp-568136,RbVBr3,30,Rb1 V1 Br3,12.89200448,12.89195418,6.45834038,90.00080995,89.999575,119.9999502,trig,P-3c1,17.9999996,-4.544029069,-1.54897312,0,TRUE,4.031227382,0.6079,FALSE,929.5890108,,
mp-570099,RbVBr3,10,Rb1 V1 Br3,7.44792638,7.447937484,6.45835375,89.99999874,90.00000321,119.998829,hex_,P6_3/mmc,5.9999994,-4.54356022,-1.54850427,0.000468849,FALSE,4.026039564,0.5839,FALSE,310.2622826,,
mp-23319,RbVCl3,10,Rb1 V1 Cl3,7.02059643,7.020593592,6.16212563,90,90,119.9999828,hex_,P6_3/mmc,6.000001,-4.993331596,-1.871321572,0,TRUE,3.065222274,0.4023,FALSE,263.0323091,,
mp-556424,RbVF3,5,Rb1 V1 F3,4.18167212,4.18171472,4.18157622,90,90,90,cubic,Pm-3m,2.9999993,-6.19578712,-3.036011711,0,TRUE,4.392090675,2.2325,FALSE,73.12138287,,
mp-672346,RbVI3,30,Rb1 V1 I3,14.0301403,14.0301403,7.029792,90,90,120.0000014,hex_,P6_3cm,17.9931503,-4.028109696,-1.100814098,0.022228082,FALSE,4.299290887,0.682,FALSE,1198.387108,,
mp-1076638,RbVO3,5,Rb1 V1 O3,3.915187,3.915187,3.915187,90,90,90,cubic,Pm-3m,0.0015413,-7.033888604,-2.052223973,0.357393585,FALSE,5.102348844,0.2498,FALSE,60.01468486,,
mp-19031,RbVO3,20,Rb1 V1 O3,5.319552,5.70559893,11.31629318,90,90,90,ortho,Pbcm,0,-7.391282189,-2.409617558,0,TRUE,3.566212187,3.0572,FALSE,343.4634193,,
mp-975138,RbWO3,5,Rb1 W1 O3,4.058288,4.058288,4.058288,90,90,90,cubic,Pm-3m,0.9996837,-7.797455308,-2.040945845,0.153238206,FALSE,7.883131845,0,FALSE,66.83879192,,
mp-975173,RbYO3,5,Rb1 Y1 O3,4.543095,4.543095,4.543095,90,90,90,cubic,Pm-3m,2.0016888,-6.725543536,-2.258841819,0.256370944,FALSE,3.937979504,0,FALSE,93.7681732,,
mp-4975,RbZnF3,30,Rb1 Zn1 F3,5.887971132,5.887970705,14.41410263,90.00000098,89.9999883,119.9994431,hex_,P6_3/mmc,0,-4.391544364,-2.796601447,0,TRUE,4.785687884,4.0784,TRUE,432.764862,,
mp-975159,RbZnO3,5,Rb1 Zn1 O3,4.164075,4.164075,4.164075,90,90,90,cubic,Pm-3m,2.9965426,-4.297861338,-0.881029198,0.418686624,FALSE,4.573763042,0,FALSE,72.20306427,,
mp-974581,ReBiO3,5,Re1 Bi1 O3,4.023439,4.023439,4.023439,90,90,90,cubic,Pm-3m,0.0322649,-7.447180904,-1.210774598,0.504280095,FALSE,11.29906415,0,FALSE,65.13167752,"{'voigt': 203.021, 'reuss': 203.021, 'vrh': 203.021}","{'voigt': -10.418, 'reuss': -9.31, 'vrh': -9.864}"
mp-974724,ReClO3,20,Re1 Cl1 O3,9.04782768,5.589611587,9.016628178,57.03039353,90,90,mono,P2_1/c,0,-7.685232689,-1.857125913,0,TRUE,4.681787337,3.5834,FALSE,382.5701114,,
mp-1245819,ReMoN3,20,Re1 Mo1 N3,9.32923065,5.603791262,8.55934789,109.2220207,90.6084819,122.6152548,tri,P-1,0.0027066,-9.580450401,0.081269109,0.356268649,FALSE,6.22652721,0,FALSE,345.8056894,,
mp-573051,ReO3F,30,Re1 O3 F1,6.08501428,6.809656732,10.47486922,89.74707039,90,90,mono,P2/c,0,-8.027162764,-2.186467526,0,TRUE,5.812179655,3.009,FALSE,434.0414439,"{'voigt': 8.648, 'reuss': 4.821, 'vrh': 6.734}","{'voigt': 7.42, 'reuss': 4.927, 'vrh': 6.173}"
mp-974511,ReSbO3,5,Re1 Sb1 O3,3.990574,3.990574,3.990574,90,90,90,cubic,Pm-3m,0.0113814,-7.417569644,-1.133369952,0.604047279,FALSE,9.301447388,0,FALSE,63.54861736,"{'voigt': 206.425, 'reuss': 206.425, 'vrh': 206.425}","{'voigt': -9.111, 'reuss': -4.792, 'vrh': -6.952}"
mp-974505,ReTeO3,5,Re1 Te1 O3,4.005481,4.005481,4.005481,90,90,90,cubic,Pm-3m,0.104775,-7.000024728,-0.912964105,0.794627099,FALSE,9.348886212,0,FALSE,64.26344866,,
mp-1247323,ReWN3,20,Re1 W1 N3,3.892727318,8.048209004,9.460464011,101.1134783,115.4138775,102.0139678,tri,P-1,0.0001317,-26.22855323,0.004378987,0.30675753,FALSE,11.03011856,0,FALSE,248.1400408,,
mp-1246660,RhWN3,20,Rh1 W1 N3,5.962713822,6.47528289,10.50025426,101.0344077,132.9625168,88.38441699,tri,P-1,0.1967973,-20.4761805,0.101874508,0.380526966,FALSE,7.576183379,0,FALSE,288.2338482,,
mp-974337,RuPbO3,5,Ru1 Pb1 O3,4.000143,4.000143,4.000143,90,90,90,cubic,Pm-3m,1.7783615,-6.871376838,-1.305190313,0.176023032,FALSE,9.242715938,0,FALSE,64.00686425,,
mp-1209117,SNF3,20,S1 N1 F3,6.846457,7.619584,7.892592,90,90,90,ortho,Pnma,6.01E-05,-4.785934008,-1.143719164,0.354124787,FALSE,1.662690992,4.2402,TRUE,411.734064,,
mp-734059,SNO3,40,S1 N1 O3,8.178549,8.333178,9.319157,90,90,90,ortho,Pbca,7.9990962,-5.70473075,-0.240626684,1.023835537,FALSE,1.967552003,0,FALSE,635.1313456,,
mp-28109,SbAsO3,20,Sb1 As1 O3,13.18079052,4.582365786,6.80426344,53.12739553,90,90,mono,P2_1/c,0,-6.426155284,-1.697553926,0,TRUE,4.943337655,3.5099,FALSE,328.7660241,,
mp-1186920,SbAuO3,5,Sb1 Au1 O3,4.002397,4.002397,4.002397,90,90,90,cubic,Pm-3m,0.0855945,-5.34703573,-0.897682479,0.402250283,FALSE,9.497927454,0,FALSE,64.11512496,,
mp-626182,SbHO3,20,Sb1 H1 O3,7.360286075,7.360286075,7.360286075,117.6066431,117.6066431,94.19794549,tet,I4_1/amd,0.0029606,-6.053281105,-1.579670966,0.027953795,FALSE,3.893746497,1.416,FALSE,291.3018061,,
mp-626218,SbHO3,20,Sb1 H1 O3,7.505387749,7.262888166,7.269138417,62.190848,58.86401325,58.94819287,ortho,Fdd2,0,-6.06543491,-1.591824771,0.01579999,FALSE,4.05718884,1.4139,FALSE,279.5668212,,
mp-1101381,SbOF3,5,Sb1 O1 F3,5.318809159,5.318809159,5.318809159,138.0662186,134.22002,63.81102294,ortho,Immm,1.07E-05,-5.259147146,-2.296867316,0.046805685,FALSE,4.547611079,1.4495,FALSE,71.11374127,,
mp-757111,SbOF3,20,Sb1 O1 F3,6.738797,7.739072627,8.429646647,98.50379439,111.4439369,109.8959998,tri,P-1,7.20E-06,-5.296920475,-2.334640646,0.009032356,FALSE,3.537568382,2.6517,FALSE,365.6722389,,
mp-758096,SbOF3,20,Sb1 O1 F3,9.31185,9.31185,3.775778,90,90,90,tet,P-42_1m,0.0005372,-5.266244918,-2.303965089,0.039707913,FALSE,3.951103805,1.9231,FALSE,327.3997887,,
mp-761759,SbOF3,20,Sb1 O1 F3,5.588086,7.501812,9.484393581,67.28262488,90,90,mono,P2_1/c,0,-5.222406393,-2.260126563,0.083546438,FALSE,3.527189704,2.6842,FALSE,366.7482215,,
mp-1246386,SbPb3N,10,Sb1 Pb3 N1,7.22317132,7.22317132,7.22317132,93.27071903,116.8954529,119.3788583,ortho,Imma,0.0001508,-40.44299153,0.295102212,0.295102212,FALSE,9.201529926,0,FALSE,273.3538886,,
mp-1186948,SbPbO3,5,Sb1 Pb1 O3,4.216556,4.216556,4.216556,90,90,90,cubic,Pm-3m,7.60E-05,-6.100877602,-1.563771337,0.170292251,FALSE,8.34965776,0,FALSE,74.96760173,,
mp-1186927,SbPdO3,5,Sb1 Pd1 O3,3.993415,3.993415,3.993415,90,90,90,cubic,Pm-3m,1.1373264,-5.742308024,-0.911754811,0.507579739,FALSE,7.201204721,0,FALSE,63.68444006,,
mp-973269,SbTeO3,5,Sb1 Te1 O3,4.17312,4.17312,4.17312,90,90,90,cubic,Pm-3m,0.0143964,-5.277056896,-0.853818866,0.702754502,FALSE,6.794326249,0,FALSE,72.67459491,"{'voigt': 125.028, 'reuss': 125.028, 'vrh': 125.028}","{'voigt': 41.918, 'reuss': 39.74, 'vrh': 40.829}"
mp-4079,Sc3AlC,5,Sc3 Al1 C1,4.5094935,4.5094935,4.5094935,90,90,90,cubic,Pm-3m,1.03E-05,-6.988557656,-0.594227929,0,TRUE,3.148222464,0,FALSE,91.70294769,"{'voigt': 100.358, 'reuss': 100.358, 'vrh': 100.358}","{'voigt': 84.393, 'reuss': 84.017, 'vrh': 84.205}"
mp-10133,Sc3BPb,5,Sc3 B1 Pb1,4.67792943,4.67792943,4.67792943,90,90,90,cubic,Pm-3m,1.70E-06,-20.17887638,-0.613486306,0,TRUE,5.724184047,0,FALSE,102.3672408,"{'voigt': 79.042, 'reuss': 79.042, 'vrh': 79.042}","{'voigt': 66.316, 'reuss': 65.046, 'vrh': 65.681}"
mp-8577,Sc3GaC,5,Sc3 Ga1 C1,4.4743237,4.4743237,4.4743237,90,90,90,cubic,Pm-3m,2.00E-06,-6.922800604,-0.671966838,0,TRUE,4.015394573,0,FALSE,89.57404802,,
mp-19726,Sc3InB,5,Sc3 In1 B1,4.688983,4.688983,4.688983,90,90,90,cubic,Pm-3m,6.14E-05,-13.29751431,-0.473432981,0.084548917,FALSE,4.195806089,0,FALSE,103.0946135,,
mp-8578,Sc3InC,5,Sc3 In1 C1,4.55061831,4.55061831,4.55062449,90,90,90,cubic,Pm-3m,3.00E-07,-6.864095884,-0.667046574,0,TRUE,4.611424324,0,FALSE,94.23490988,,
mp-31055,Sc3InN,5,Sc3 In1 N1,4.46445515,4.46445824,4.46445824,90,90,90,cubic,Pm-3m,4.89E-05,-7.209011366,-1.190039605,0,TRUE,4.920857348,0,FALSE,88.98278502,"{'voigt': 96.711, 'reuss': 96.711, 'vrh': 96.711}","{'voigt': 74.373, 'reuss': 74.218, 'vrh': 74.295}"
mp-21035,Sc3PbC,5,Sc3 Pb1 C1,4.55407219,4.55407219,4.55407219,90,90,90,cubic,Pm-3m,7.94E-05,-7.06481369,-0.677069714,0,TRUE,6.225135998,0,FALSE,94.44951496,,
mp-10139,Sc3SnB,5,Sc3 Sn1 B1,4.65396808,4.65396808,4.65396808,90,90,90,cubic,Pm-3m,2.33E-05,-13.93355568,-0.675955673,0,TRUE,4.355337806,0,FALSE,100.8022441,"{'voigt': 83.179, 'reuss': 83.179, 'vrh': 83.179}","{'voigt': 69.432, 'reuss': 67.878, 'vrh': 68.655}"
mp-16297,Sc3SnC,5,Sc3 Sn1 C1,4.53027743,4.53027743,4.53027743,90,90,90,cubic,Pm-3m,2.16E-05,-7.236472258,-0.789343326,0,TRUE,4.743335711,0,FALSE,92.97675739,,
mp-10140,Sc3TlB,5,Sc3 Tl1 B1,4.690238,4.690238,4.690238,90,90,90,cubic,Pm-3m,0.0002718,-19.36260445,-0.418380285,0.03394774,FALSE,5.633904343,0,FALSE,103.177415,"{'voigt': 76.574, 'reuss': 76.574, 'vrh': 76.574}","{'voigt': 54.903, 'reuss': 54.093, 'vrh': 54.498}"
mp-4230,Sc3TlC,5,Sc3 Tl1 C1,4.54420828,4.54420828,4.54420828,90,90,90,cubic,Pm-3m,7.40E-06,-6.73937792,-0.619868935,0,TRUE,6.215917687,0,FALSE,93.83712343,"{'voigt': 97.309, 'reuss': 97.309, 'vrh': 97.309}","{'voigt': 81.917, 'reuss': 81.78, 'vrh': 81.849}"
mp-776150,ScAgO3,10,Sc1 Ag1 O3,6.488969059,6.488969059,3.220464,90,90,103.2161045,ortho,Cmmm,0.000268,-6.914838808,-2.110980848,0.060727019,FALSE,5.052178606,0.3612,FALSE,132.0116807,,
mp-4471,ScAlO3,20,Sc1 Al1 O3,4.97364,5.264203,7.297695,90,90,90,ortho,Pnma,0.0002334,-8.654007197,-3.669621607,0.028020217,FALSE,4.169314923,4.5919,FALSE,191.0700794,"{'voigt': 208.346, 'reuss': 203.189, 'vrh': 205.767}","{'voigt': 118.698, 'reuss': 114.321, 'vrh': 116.509}"
mp-973156,ScAsO3,5,Sc1 As1 O3,3.942009,3.942009,3.942009,90,90,90,cubic,Pm-3m,0.0525248,-6.919006668,-1.749711738,1.047828888,FALSE,4.55076208,0,FALSE,61.25659245,"{'voigt': 135.67, 'reuss': 135.67, 'vrh': 135.67}","{'voigt': 49.938, 'reuss': 41.252, 'vrh': 45.595}"
mp-10113,ScBIr3,5,Sc1 B1 Ir3,4.12710079,4.12710079,4.12710079,90,90,90,cubic,Pm-3m,3.94E-05,-8.564768664,-0.659335981,0,TRUE,14.93887984,0,FALSE,70.29674651,"{'voigt': 242.814, 'reuss': 242.814, 'vrh': 242.814}","{'voigt': 127.33, 'reuss': 116.318, 'vrh': 121.824}"
mp-8697,ScBO3,10,Sc1 B1 O3,5.799975271,5.799975081,5.799976905,48.58945306,48.58945178,48.58945248,trig,R-3c,0,-9.008089935,-3.436941157,0,TRUE,3.423054231,4.118,TRUE,100.6738489,,
mp-1017631,ScBPd3,5,Sc1 B1 Pd3,4.234957,4.234957,4.234957,90,90,90,cubic,Pm-3m,4.64E-05,-18.08364943,-0.558408953,0.156873191,FALSE,8.199068527,0,FALSE,75.95336425,"{'voigt': 153.391, 'reuss': 153.391, 'vrh': 153.391}","{'voigt': 33.263, 'reuss': 8.412, 'vrh': 20.837}"
mp-1018627,ScBPt3,5,Sc1 B1 Pt3,4.262156,4.262156,4.262156,90,90,90,cubic,Pm-3m,5.32E-05,-6.881144814,-0.636092647,0.19588053,FALSE,13.74775918,0,FALSE,77.42621409,"{'voigt': 187.164, 'reuss': 187.164, 'vrh': 187.164}","{'voigt': 24.834, 'reuss': -23.398, 'vrh': 0.718}"
mp-569875,ScBRh3,5,Sc1 B1 Rh3,4.09667077,4.09667077,4.09667077,90,90,90,cubic,Pm-3m,0.0250306,-7.774343224,-0.753386327,0,TRUE,8.803060283,0,FALSE,68.75324322,"{'voigt': 195.322, 'reuss': 195.322, 'vrh': 195.322}","{'voigt': 100.995, 'reuss': 91.57, 'vrh': 96.283}"
mp-1101383,ScBiO3,10,Sc1 Bi1 O3,6.014840323,6.014840323,6.014840772,56.62642017,56.62642017,56.6264239,trig,R-3,0.0002792,-7.744921898,-2.731644612,0.073585316,FALSE,7.067566893,2.1479,TRUE,141.8802426,,
mp-550008,ScBiO3,5,Sc1 Bi1 O3,4.075793,4.075793,4.075793,90,90,90,cubic,Pm-3m,0.0003599,-7.461491168,-2.448213882,0.357016046,FALSE,7.405007405,0.6897,FALSE,67.70743435,"{'voigt': 148.262, 'reuss': 148.262, 'vrh': 148.262}","{'voigt': 76.103, 'reuss': 67.676, 'vrh': 71.889}"
mp-555313,ScBiO3,20,Sc1 Bi1 O3,5.795712832,5.795712832,10.14954145,73.78835563,73.78835563,61.12742951,mono,Cc,5.00E-06,-7.78477346,-2.771496174,0.033733754,FALSE,7.101137173,2.6897,FALSE,282.4190213,,
mp-555769,ScBiO3,20,Sc1 Bi1 O3,5.795522631,5.795522631,10.14259118,73.79084707,73.79084707,61.12308309,mono,C2/c,5.00E-07,-7.784024789,-2.770747503,0.034482425,FALSE,7.106623446,2.6784,FALSE,282.2009955,,
mp-754009,ScBiO3,10,Sc1 Bi1 O3,5.918435861,5.918435861,5.918435647,58.49293785,58.49293785,58.49293269,trig,R3c,6.57E-05,-7.797074837,-2.783797551,0.021432377,FALSE,7.084729769,3.0834,FALSE,141.5365354,,
mp-756205,ScBiO3,20,Sc1 Bi1 O3,5.600617,5.909651,8.104093,90,90,90,ortho,Pnma,1.30E-05,-7.786350053,-2.773072767,0.032157161,FALSE,7.476868134,2.9082,FALSE,268.2267729,,
mp-10270,ScCo3C,5,Sc1 Co3 C1,3.78085852,3.78097813,3.78097813,90,90,90,cubic,Pm-3m,4.90E-06,-7.671762876,-0.279485925,0,TRUE,7.181779254,0,FALSE,54.05038067,"{'voigt': 208.929, 'reuss': 208.929, 'vrh': 208.929}","{'voigt': 98.932, 'reuss': 93.425, 'vrh': 96.179}"
mp-1186980,ScCoO3,5,Sc1 Co1 O3,3.661868,3.661868,3.661868,90,90,90,cubic,Pm-3m,0.0005578,-7.702065132,-2.040111364,0.559231103,FALSE,5.136443603,0.786,FALSE,49.10300326,,
mp-1643785,ScCoO3,20,Sc1 Co1 O3,5.011454321,5.446058692,7.41955288,90.00222741,88.92155958,89.99745961,mono,P2_1/c,3.9999997,-8.192097416,-2.530143647,0.06919882,FALSE,4.982917297,0.8962,FALSE,202.4635706,,
mp-754124,ScCoO3,20,Sc1 Co1 O3,5.011564054,5.409577002,7.655569811,90.00165402,89.73397158,89.99754113,ortho,Pnma,4.10E-06,-8.191829626,-2.529875858,0.069466609,FALSE,4.860949832,0,FALSE,207.5436412,,
mp-18961,ScCrO3,20,Sc1 Cr1 O3,5.088884,5.407961,7.553968,89.99998182,90.00002643,90.00002185,ortho,Pnma,5.00E-07,-9.296693205,-3.130813287,0.036846918,FALSE,4.631233741,2.4178,FALSE,207.8888721,,
mp-973068,ScCuO3,5,Sc1 Cu1 O3,3.728893,3.728893,3.728893,90,90,90,cubic,Pm-3m,0.0347615,-6.892613322,-1.837501564,0.572803505,FALSE,5.012149144,0,FALSE,51.84892597,"{'voigt': 186.205, 'reuss': 186.205, 'vrh': 186.205}","{'voigt': 76.628, 'reuss': 59.959, 'vrh': 68.294}"
mp-754342,ScFeO3,10,Sc1 Fe1 O3,3.369388344,3.369388344,11.944255,90,90,120.0000067,hex_,P6_3/mmc,10,-8.694239036,-2.76496437,0.072947627,FALSE,4.20811525,0,FALSE,117.4334465,,
mp-756419,ScFeO3,20,Sc1 Fe1 O3,5.023174482,5.397466407,7.427368277,90.10703547,89.65309211,90.02223936,mono,P2_1/c,19.9996066,-8.629074974,-2.699800308,0.138111689,FALSE,4.908118132,1.2694,TRUE,201.3698382,,
mp-769734,ScFeO3,20,Sc1 Fe1 O3,5.102012,5.42055,7.673745,90,90,90,ortho,Pnma,19.9990706,-8.683240483,-2.753965817,0.08394618,FALSE,4.657117917,1.7076,TRUE,212.2228751,,
mp-771123,ScFeO3,30,Sc1 Fe1 O3,5.847179636,5.847179636,11.581486,90,90,119.9999959,hex_,P6_3cm,29.9977918,-8.708788777,-2.779514111,0.058397886,FALSE,4.323275167,0.9223,FALSE,342.9160472,,
mp-754165,ScGaO3,10,Sc1 Ga1 O3,3.296685446,3.296686019,11.76513134,90.00001006,89.99999448,119.9999776,hex_,P6_3/mmc,0,-7.942142936,-3.101253308,0.017611347,FALSE,4.878911498,2.6997,FALSE,110.7344127,,
mp-754239,ScGaO3,20,Sc1 Ga1 O3,5.064654,5.383967,7.58976,90,90,90,ortho,Pnma,8.80E-06,-7.883292174,-3.042402545,0.07646211,FALSE,5.221019666,4.3308,FALSE,206.9570444,,