mp_id,formula,sites,composition,a_edge (angstrom),b_edge (angstrom),c_edge (angstrom),alpha_ang (deg),beta_ang (deg),gamma_ang (deg),crystal_system,space_group,total_magnetisation (bohr),energy_per_atom (eV/atom),formation_energy (eV/atom),energy_above_hull (eV/atom),stable,density (g/cc),band_gap (eV),direct_bandgap,volume (cubic-angstrom),bulk_modulus (GPa),shear_modulus (GPa)
mp-1206894,Lu3AlC,5,Lu3 Al1 C1,4.71874906,4.71875517,4.71874906,90,90,90,cubic,Pm-3m,9.00E-07,-5.789421248,-0.481560512,0,TRUE,8.911786528,0,FALSE,105.0705994,,
mp-1017627,Lu3AlN,5,Lu3 Al1 N1,4.60314447,4.60314447,4.60314447,90,90,90,cubic,Pm-3m,6.50E-05,-27.1513254,-1.131227488,0,TRUE,9.63422348,0,FALSE,97.53574744,"{'voigt': 99.463, 'reuss': 99.463, 'vrh': 99.463}","{'voigt': 75.738, 'reuss': 75.429, 'vrh': 75.583}"
mp-1206912,Lu3GaC,5,Lu3 Ga1 C1,4.68574539,4.68574539,4.68574539,90,90,90,cubic,Pm-3m,5.00E-07,-5.709742796,-0.545378021,0,TRUE,9.791298401,0,FALSE,102.8812091,,
mp-1206516,Lu3InC,5,Lu3 In1 C1,4.75349159,4.75349159,4.75349159,90,90,90,cubic,Pm-3m,9.50E-06,-5.68388206,-0.573301741,0,TRUE,10.07577407,0,FALSE,107.4083858,,
mp-11733,Lu3InN,5,Lu3 In1 N1,4.64826427,4.64826427,4.64826427,90,90,90,cubic,Pm-3m,0.0001833,-30.40819764,-1.218801316,0,TRUE,10.80866913,0,FALSE,100.4320746,,
mp-1206877,Lu3PbC,5,Lu3 Pb1 C1,4.75169539,4.75169539,4.75169539,90,90,90,cubic,Pm-3m,6.98E-05,-5.868060386,-0.566785402,0,TRUE,11.51705535,0,FALSE,107.2866727,,
mp-10609,Lu3SnC,5,Lu3 Sn1 C1,4.72821961,4.72821961,4.72821961,90,90,90,cubic,Pm-3m,0.0001188,-6.029774586,-0.669114644,0,TRUE,10.29934242,0,FALSE,105.7043645,,
mp-10607,Lu3TlC,5,Lu3 Tl1 C1,4.74607332,4.74607332,4.74607332,90,90,90,cubic,Pm-3m,4.20E-06,-5.558271936,-0.525231942,0,TRUE,11.51428139,0,FALSE,106.9063075,,
mp-1185485,LuAlO3,5,Lu1 Al1 O3,3.677248,3.677248,3.677248,90,90,90,cubic,Pm-3m,8.30E-06,-8.171755614,-3.549526354,0.25549234,FALSE,8.34694997,3.1252,FALSE,49.72430954,,
mp-754435,LuAlO3,10,Lu1 Al1 O3,5.182371415,5.182371415,5.182370943,60.93765084,60.93765084,60.93764162,trig,R-3c,2.32E-05,-8.345041552,-3.722812292,0.082206402,FALSE,8.259909025,0.0002,TRUE,100.4965848,,
mp-755358,LuAlO3,10,Lu1 Al1 O3,3.389593056,3.389593056,11.469327,90,90,120.0000206,hex_,P6_3/mmc,0.0003929,-8.365620775,-3.743391515,0.061627179,FALSE,7.273827011,3.6479,FALSE,114.1204825,,
mp-755574,LuAlO3,20,Lu1 Al1 O3,5.119996,5.361787,7.36044,90,90,90,ortho,Pnma,0.000302,-8.406215404,-3.783986144,0.02103255,FALSE,8.216249279,6.0914,TRUE,202.0612131,,
mp-756850,LuAlO3,30,Lu1 Al1 O3,6.480351303,6.480351303,10.246096,90,90,120.2200639,ortho,Cmcm,0,-8.328935587,-3.706706328,0.098312366,FALSE,6.697751032,3.712,TRUE,371.8080789,,
mp-1222450,LuBO3,10,Lu1 B1 O3,3.87326198,3.87326198,8.442054,90,90,116.1679405,ortho,Ama2,0.0042045,-8.694018302,-3.485025854,0.084125662,FALSE,6.830311479,4.5157,FALSE,113.6681729,,
mp-7560,LuBO3,10,Lu1 B1 O3,6.032451833,6.032452339,6.032452289,47.71010856,47.71011237,47.71010333,trig,R-3c,0,-8.778143964,-3.569151516,0,TRUE,7.059129508,5.3023,FALSE,109.9836779,,
mp-760461,LuBO3,10,Lu1 B1 O3,4.600405273,4.600405273,7.966248,90,90,135.7286694,ortho,Cmcm,0.0013227,-8.749382555,-3.540390107,0.028761409,FALSE,6.596938601,4.2791,FALSE,117.6892909,,
mp-3105,LuBPd3,5,Lu1 B1 Pd3,4.286119,4.286119,4.286119,90,90,90,cubic,Pm-3m,0.001127,-23.53563464,-0.674115597,0.11490507,FALSE,10.65075709,0,FALSE,78.73950386,"{'voigt': 148.81, 'reuss': 148.81, 'vrh': 148.81}","{'voigt': 34.238, 'reuss': 16.45, 'vrh': 25.344}"
mp-3717,LuBRh3,5,Lu1 B1 Rh3,4.13754512,4.13753698,4.13750443,90,90,90,cubic,Pm-3m,0.0386781,-24.45507914,-0.888095088,0,TRUE,11.59277642,0,FALSE,70.83095592,"{'voigt': 188.744, 'reuss': 188.744, 'vrh': 188.744}","{'voigt': 93.96, 'reuss': 87.328, 'vrh': 90.644}"
mp-1176501,LuBiO3,10,Lu1 Bi1 O3,6.045355796,6.045355796,6.045355523,58.67412313,58.67412313,58.67413236,trig,R3c,0.0094215,-7.506134075,-2.855013119,0.027742274,FALSE,9.469356582,3.1586,FALSE,151.4912945,,
mp-772801,LuBiO3,10,Lu1 Bi1 O3,6.108581631,6.108581631,6.108581437,57.68195007,57.68195007,57.68194838,trig,R-3,0.0002293,-7.475031207,-2.823910251,0.058845142,FALSE,9.400974309,2.3018,TRUE,152.5932355,,
mp-1222293,LuBiTe3,5,Lu1 Bi1 Te3,10.90266228,10.90266228,10.90266238,23.11727067,23.11727067,23.11727399,trig,R3m,0.0043869,-4.58699091,-1.018663021,0.023043488,FALSE,7.260919717,1.1043,FALSE,175.3516168,,
mp-550950,LuCoO3,20,Lu1 Co1 O3,5.067229,5.450336,7.305639,90,90,90,ortho,Pnma,7.9997979,-7.939461358,-2.63966392,0.037204012,FALSE,9.28003632,0,FALSE,201.7678731,,
mp-755471,LuCrO3,20,Lu1 Cr1 O3,5.13477912,5.48498586,7.45708665,90,90,90,ortho,Pnma,11.9999995,-9.05739714,-3.253673552,0,TRUE,8.695893112,2.5313,FALSE,210.0228117,,
mp-1193395,LuFeO3,30,Lu1 Fe1 O3,5.962016454,5.962019856,11.58159389,89.9984815,89.99847915,119.9958845,hex_,P6_3cm,30.026162,-8.468754416,-2.901636081,0.013801381,FALSE,7.791219595,0,FALSE,356.536142,,
mp-22588,LuFeO3,20,Lu1 Fe1 O3,5.240991,5.581437,7.665847,90,90,90,ortho,Pnma,20.0015093,-8.446516675,-2.879398339,0.036039123,FALSE,8.258442679,1.6083,TRUE,224.2433579,,
mp-1185488,LuGaO3,5,Lu1 Ga1 O3,3.76660741,3.76660741,3.76660741,90,90,90,cubic,Pm-3m,0,-7.234115358,-2.75538206,0.464550231,FALSE,9.095011277,3.0274,FALSE,53.43810751,,
mp-755342,LuGaO3,10,Lu1 Ga1 O3,3.457911449,3.457911449,11.705323,90,90,119.9999895,hex_,P6_3/mmc,0.0023094,-7.67745922,-3.198725922,0.021206369,FALSE,8.019411365,2.5134,FALSE,121.2109389,,
mp-755792,LuGaO3,20,Lu1 Ga1 O3,5.208062,5.538213,7.584194,90,90,90,ortho,Pnma,0.0009354,-7.644123237,-3.165389938,0.054542353,FALSE,8.887079571,3.974,TRUE,218.7536126,,
mp-768505,LuGaO3,30,Lu1 Ga1 O3,5.902617442,5.902615852,11.57413725,89.99999338,89.99995016,119.9993873,hex_,P6_3cm,0,-7.698665589,-3.219932291,0,TRUE,8.350153593,2.8917,FALSE,349.2296411,,
mp-1185514,LuGeO3,5,Lu1 Ge1 O3,3.876011,3.876011,3.876011,90,90,90,cubic,Pm-3m,0.0076727,-7.058339924,-2.260620259,0.811421797,FALSE,8.429584418,0,FALSE,58.23110115,,
mp-1232147,LuMgSe3,20,Lu1 Mg1 Se3,8.153406397,11.84292776,7.273740432,90,130.4738508,90,mono,C2/m,1.50E-06,-4.735201821,-1.40722344,0.295558502,FALSE,5.422209156,0,FALSE,534.2821821,,
mp-1237926,LuMgSe3,10,Lu1 Mg1 Se3,7.310461667,7.310461667,6.85701455,76.0408141,76.0408141,118.9839127,mono,C2/m,0.0014887,-4.701769016,-1.373790636,0.328991307,FALSE,5.135447972,0,FALSE,282.0581335,,
mp-18808,LuMnO3,30,Lu1 Mn1 O3,6.005675697,6.005585934,11.31237259,89.99930347,90.00043619,120.0011963,hex_,P6_3cm,23.9999987,-8.81592365,-3.110406498,0,TRUE,7.836057358,0,FALSE,353.3428922,,
mp-21125,LuMnO3,20,Lu1 Mn1 O3,5.241762,5.774885,7.443986,90,90,90,ortho,Pnma,16.0016329,-8.765617151,-3.060099999,0.050306498,FALSE,8.191746811,0.4482,FALSE,225.3337197,,
mp-1079715,LuNiGe3,10,Lu1 Ni1 Ge3,10.9582056,10.9582056,4.046065,90,90,158.5251057,ortho,Cmmm,0.0186393,-5.346626124,-0.512444584,0.01315688,FALSE,8.431608067,0,FALSE,177.8704347,,
mp-1105866,LuNiO3,20,Lu1 Ni1 O3,5.524087,5.135201,8.978869308,55.32949237,90,90,mono,P2_1/c,4.0238566,-7.563221223,-2.534079794,0.016295357,FALSE,8.93079,0.0995,FALSE,209.4798372,,
mp-19327,LuNiO3,20,Lu1 Ni1 O3,5.05126451,5.46733495,7.271698801,90.00129829,90.00047976,90.00007984,ortho,Pnma,4.0000014,-7.56460239,-2.535460961,0.01491419,FALSE,9.315805899,0,FALSE,200.8221785,,
mp-1185498,LuNpO3,5,Lu1 Np1 O3,4.198436,4.198436,4.198436,90,90,90,cubic,Pm-3m,3.999996,-9.570101218,-3.107431188,0.575002478,FALSE,10.32075481,0.0493,FALSE,74.00526394,,
mp-1185490,LuPdO3,5,Lu1 Pd1 O3,3.963751,3.963751,3.963751,90,90,90,cubic,Pm-3m,0.0044716,-6.662980226,-1.75388977,0.684225317,FALSE,8.782822082,0,FALSE,62.27576825,,
mp-1185529,LuReO3,5,Lu1 Re1 O3,3.956277,3.956277,3.956277,90,90,90,cubic,Pm-3m,0.0152648,-8.304095138,-1.941358203,0.986050597,FALSE,10.97223607,0,FALSE,61.92415282,,
mp-10699,LuRh3C,5,Lu1 Rh3 C1,4.11552588,4.11552588,4.11552588,90,90,90,cubic,Pm-3m,1.38E-05,-7.720696492,-0.552041181,0,TRUE,11.80828764,0,FALSE,69.70693882,"{'voigt': 205.343, 'reuss': 205.343, 'vrh': 205.343}","{'voigt': 85.754, 'reuss': 85.397, 'vrh': 85.576}"
mp-1205366,LuRhO3,20,Lu1 Rh1 O3,5.15042715,5.66071551,7.48237152,90,90,90,ortho,Pnma,0,-7.958022457,-2.612046789,0,TRUE,9.922030465,1.0887,TRUE,218.1493112,,
mp-973681,LuRhO3,5,Lu1 Rh1 O3,3.924034,3.924034,3.924034,90,90,90,cubic,Pm-3m,0.0009556,-7.234465068,-1.8884894,0.723557389,FALSE,8.955629658,0,FALSE,60.42244361,"{'voigt': 189.552, 'reuss': 189.552, 'vrh': 189.552}","{'voigt': 70.29, 'reuss': -12.919, 'vrh': 28.686}"
mp-1207093,LuRu3C,5,Lu1 Ru3 C1,4.1024656,4.10244827,4.10244827,90,90,90,cubic,Pm-3m,3.12E-05,-8.594351208,-0.279639095,0,TRUE,11.78909132,0,FALSE,69.04483166,,
mp-772180,LuScO3,30,Lu1 Sc1 O3,6.109015092,6.109015092,12.114255,90,90,119.9999902,hex_,P6_3cm,0.00012,-9.145822131,-4.006214217,0.040043889,FALSE,6.817693971,3.0848,TRUE,391.5342711,,
mp-776593,LuScO3,20,Lu1 Sc1 O3,5.379162,5.689607,7.942178,90,90,90,ortho,Pnma,0,-9.122406674,-3.982798759,0.063459346,FALSE,7.321153566,4.6063,FALSE,243.0728815,,
mp-768293,LuSeO3,40,Lu1 Se1 O3,12.428271,5.857039,8.658127517,74.18797173,90,90,mono,P2_1/c,0.0012402,-7.115974264,-2.543677874,0.03757852,FALSE,6.614209923,1.705,FALSE,606.4017872,,
mp-973655,LuSiO3,5,Lu1 Si1 O3,3.680432,3.680432,3.680432,90,90,90,cubic,Pm-3m,0.0019206,-7.67381671,-2.71563901,0.878017377,FALSE,8.362076568,0,FALSE,49.85358501,,
mp-754231,LuTiO3,20,Lu1 Ti1 O3,5.264573,5.647997,7.620271,90,90,90,ortho,Pnma,3.9931144,-9.10655619,-3.654343693,0.061941423,FALSE,7.939284418,0,FALSE,226.5833669,,
mp-754597,LuTlO3,20,Lu1 Tl1 O3,5.6952,5.80756,8.425783,90,90,90,ortho,Pnma,0.0577645,-6.875757565,-2.528349048,0.083761392,FALSE,10.18540535,1.0776,TRUE,278.6845903,,
mp-973536,LuUO3,5,Lu1 U1 O3,4.192118,4.192118,4.192118,90,90,90,cubic,Pm-3m,3,-9.180594136,-3.04919804,0.704651925,FALSE,10.39068019,0,FALSE,73.67166686,"{'voigt': 151.069, 'reuss': 151.069, 'vrh': 151.069}","{'voigt': 91.787, 'reuss': 80.132, 'vrh': 85.959}"
mp-755583,LuVO3,20,Lu1 V1 O3,5.241979,5.658672,7.593422,90,90,90,ortho,Pnma,7.9962171,-9.01328719,-3.323391882,0.00577375,FALSE,8.077266465,1.5725,FALSE,225.2409416,,
mp-973486,LuVO3,5,Lu1 V1 O3,3.853611,3.853611,3.853611,90,90,90,cubic,Pm-3m,1.9970962,-8.455128082,-2.765232774,0.563932858,FALSE,7.947822038,0,FALSE,57.22734779,,
mp-1206514,Mg3AsN,5,Mg3 As1 N1,4.20628578,4.20628578,4.20628578,90,90,90,cubic,Pm-3m,0,-8.16520575,-0.896367267,0,TRUE,3.611166352,2.2818,FALSE,74.42114156,,
mp-2647001,Mg3BiSb,5,Mg3 Bi1 Sb1,4.66434,4.664340925,7.360345,90,90,119.9999934,trig,P3m1,0,-2.878640086,-0.296550967,0.006847672,FALSE,4.833375607,0.1607,FALSE,138.6785583,,
mp-1080847,Mg3SbN,5,Mg3 Sb1 N1,4.34531858,4.34531858,4.34531858,90,90,90,cubic,Pm-3m,0,-4.17767412,-0.705936314,0,TRUE,4.223462046,1.6234,FALSE,82.04740839,,
mp-10185,Mg3ZnC,5,Mg3 Zn1 C1,4.406931,4.406931,4.406931,90,90,90,cubic,Pm-3m,1.30E-05,-2.883171018,0.192792812,0.235294405,FALSE,2.916752512,0,FALSE,85.58718692,"{'voigt': 62.165, 'reuss': 62.165, 'vrh': 62.165}","{'voigt': 37.876, 'reuss': 36.623, 'vrh': 37.249}"
mp-1210575,MgAgF3,5,Mg1 Ag1 F3,4.399469,4.399469,4.399469,90,90,90,cubic,Pm-3m,0.0009352,-3.628846704,-1.587277785,1.195872592,FALSE,3.688900357,0,FALSE,85.15316324,,
mp-998358,MgAgF3,5,Mg1 Ag1 F3,3.988217,3.988217,3.988217,90,90,90,cubic,Pm-3m,2.03E-05,-4.79154036,-2.749971441,0.033178936,FALSE,4.951780314,2.3751,FALSE,63.43608043,,
mp-998418,MgAgF3,10,Mg1 Ag1 F3,5.526014785,5.526014785,5.526013837,59.86917556,59.86917556,59.8691822,trig,R-3c,0,-4.806576408,-2.765007489,0.018142888,FALSE,5.280776297,2.1901,FALSE,118.9679383,,
mp-1185841,MgAlO3,5,Mg1 Al1 O3,3.674304,3.674304,3.674304,90,90,90,cubic,Pm-3m,0.3339832,-6.581299996,-2.537314224,0.429348574,FALSE,3.323581535,0,FALSE,49.60497747,,
mp-1185693,MgBO3,5,Mg1 B1 O3,3.357238,3.357238,3.357238,90,90,90,cubic,Pm-3m,0.0040551,-6.330713882,-1.699964922,1.013810653,FALSE,3.647354163,0,FALSE,37.83958725,,
mp-1199652,MgBO3,40,Mg1 B1 O3,3.220441615,10.434268,12.48454368,90,95.09562198,90,mono,P2_1/c,8.0040719,-7.161881178,-2.531132218,0.182643357,FALSE,2.642311523,0.1888,FALSE,417.8595139,,
mp-1185692,MgBeO3,5,Mg1 Be1 O3,3.490528,3.490528,3.490528,90,90,90,cubic,Pm-3m,2.0015331,-5.849290492,-1.806537313,0.649928676,FALSE,3.175034331,0,FALSE,42.5278452,,
mp-1185847,MgBiO3,5,Mg1 Bi1 O3,3.935588,3.935588,3.935588,90,90,90,cubic,Pm-3m,0.9979262,-5.71506759,-1.642190122,0.456517276,FALSE,7.662396585,0,FALSE,60.95774363,,
mp-1376863,MgBiO3,20,Mg1 Bi1 O3,5.651679,5.70683,8.292801,90,90,90,ortho,Pnma,0.000368,-6.047537598,-1.97466013,0.124047268,FALSE,6.985215901,0,FALSE,267.4691309,,
mp-2647164,MgCO3,60,Mg1 C1 O3,9.525298168,7.142288,8.243413121,90,102.9027773,90,mono,C2/m,0,-7.268449153,-2.127845449,0.314648657,FALSE,3.073357702,4.8023,FALSE,546.658886,,
mp-5348,MgCO3,10,Mg1 C1 O3,5.64985544,5.649855438,5.649855685,48.44321015,48.44320468,48.44319922,trig,R-3c,0,-7.58309781,-2.442494106,0,TRUE,3.023645158,4.9603,FALSE,92.60777472,,
mp-546079,MgCO3,10,Mg1 C1 O3,5.162860567,5.162860567,3.646814,90,90,110.9725116,ortho,C222_1,0,-7.205036177,-2.064432472,0.378061633,FALSE,3.084978943,5.4366,FALSE,90.76659997,"{'voigt': 96.327, 'reuss': 75.136, 'vrh': 85.731}","{'voigt': -151.957, 'reuss': 46.569, 'vrh': -52.694}"
mp-20424,MgCo3C,5,Mg1 Co3 C1,3.76239029,3.76239029,3.76239029,90,90,90,cubic,Pm-3m,2.243793,-6.500367282,-0.048490149,0,TRUE,6.644650796,0,FALSE,53.25881935,,
mp-1076820,MgCoO3,5,Mg1 Co1 O3,3.65788348,3.65787367,3.65787544,90,90,90,cubic,Pm-3m,2.6400955,-6.06259998,-1.34104603,0.551415777,FALSE,4.452622816,0,FALSE,48.94265018,,
mp-755711,MgCoO3,20,Mg1 Co1 O3,6.382678416,6.382678416,4.961926238,86.81401285,86.81401285,83.4258897,mono,C2/c,3.9998958,-6.510295364,-1.788741414,0.103720393,FALSE,4.352905595,0.1644,FALSE,200.2553523,,
mp-756102,MgCoO3,20,Mg1 Co1 O3,4.927362,5.145678,7.191459,90,90,90,ortho,Pnma,4.0002481,-6.521940485,-1.800386535,0.092075272,FALSE,4.780675833,0,FALSE,182.3366975,,
mp-761524,MgCoO3,10,Mg1 Co1 O3,5.356343431,5.356343431,5.356344352,54.75089747,54.75089747,54.75089366,trig,R-3,1.9982132,-6.547917791,-1.826363841,0.066097966,FALSE,4.569557285,0,FALSE,95.38042627,,
mp-1346485,MgCrO3,20,Mg1 Cr1 O3,5.023085,5.228711,7.370666,90,90,90,ortho,Pnma,8.0000061,-7.61111737,-2.38563727,0.120496968,FALSE,4.264870753,0.2293,FALSE,193.5850867,,
mp-2225290,MgCrO3,5,Mg1 Cr1 O3,5.262659205,5.244500242,3.054912,90,90,116.0138207,mono,Pm,2.0002471,-7.559965722,-2.334485622,0.171648616,FALSE,2.723959473,0.9534,TRUE,75.77346345,,
mp-1076317,MgCuO3,5,Mg1 Cu1 O3,3.731181,3.731181,3.731181,90,90,90,cubic,Pm-3m,0.0452822,-5.2701007,-1.15538876,0.498330607,FALSE,4.34277402,0,FALSE,51.94442601,,
mp-1076368,MgFeO3,5,Mg1 Fe1 O3,3.765865,3.765865,3.765865,90,90,90,cubic,Pm-3m,3.9961674,-6.604848746,-1.615973898,0.507199893,FALSE,3.984440686,0,FALSE,53.40651529,,
mp-1279364,MgFeO3,20,Mg1 Fe1 O3,4.992874168,5.406242394,7.771013136,84.32479157,93.06461285,90.65209114,tri,P-1,1.00E-07,-6.998651237,-2.009776389,0.113397402,FALSE,4.083771895,0.2,FALSE,208.4299495,,
mp-1303831,MgFeO3,20,Mg1 Fe1 O3,5.082138654,5.474779822,7.499918514,84.19248742,89.87475856,89.80349116,trig,R3,16.0002887,-6.998474354,-2.009599506,0.113574285,FALSE,4.100057629,0.2295,FALSE,207.6020502,,
mp-1372708,MgFeO3,20,Mg1 Fe1 O3,4.95391641,5.18178631,7.25737841,90,90,90,ortho,Pnma,15.7553774,-6.961707061,-1.972832213,0.150341578,FALSE,4.568921088,0,FALSE,186.2978925,,
mp-752416,MgFeO3,20,Mg1 Fe1 O3,6.497502189,6.497502189,5.361173624,89.97931548,89.97931548,83.13996802,mono,C2/c,15.9994547,-6.936062445,-1.947187597,0.175986193,FALSE,3.78781925,0.1129,FALSE,224.7151497,,
mp-754508,MgFeO3,10,Mg1 Fe1 O3,5.506430096,5.506430096,5.506429911,55.14471712,55.14471712,55.14472315,trig,R-3,7.9899635,-6.997321394,-2.008446546,0.114727245,FALSE,4.063720553,0,FALSE,104.7291956,,
mp-1016827,MgGeO3,5,Mg1 Ge1 O3,3.718173,3.718173,3.718173,90,90,90,cubic,Pm-3m,0.0002862,-6.26025941,-2.040783233,0.52495472,FALSE,4.682288444,1.5499,FALSE,51.40303697,"{'voigt': 185.85, 'reuss': 185.85, 'vrh': 185.85}","{'voigt': 101.137, 'reuss': 100.599, 'vrh': 100.868}"
mp-3047,MgGeO3,10,Mg1 Ge1 O3,4.881366294,4.881366294,6.93351539,90,90,146.4924055,ortho,Cmcm,0,-6.643806829,-2.424330652,0.141407302,FALSE,5.277937004,2.4744,FALSE,91.20375853,"{'voigt': 161.95, 'reuss': 160.675, 'vrh': 161.312}","{'voigt': 75.886, 'reuss': 14.598, 'vrh': 45.242}"
mp-3759,MgGeO3,10,Mg1 Ge1 O3,5.470433039,5.470433039,5.470433594,54.54174208,54.54174208,54.54174264,trig,R-3,0.0003523,-6.753412117,-2.53393594,0.031802013,FALSE,4.764605969,3.6339,FALSE,101.0299058,"{'voigt': -431890715251260.7, 'reuss': 228.07, 'vrh': -215945357625516.3}","{'voigt': 1661529301845079.5, 'reuss': 3237.198, 'vrh': 830764650924158.4}"
mp-4575,MgGeO3,80,Mg1 Ge1 O3,5.33724565,8.92147031,18.81824604,90,90,90,ortho,Pbca,1.48E-05,-6.772364487,-2.55288831,0.012849643,FALSE,4.297680803,3.049,TRUE,896.0510826,,
mp-4819,MgGeO3,20,Mg1 Ge1 O3,6.553720039,6.553720039,5.168550134,82.13121205,82.13121205,85.83099141,mono,C2/c,0,-6.77348626,-2.554010083,0.01172787,FALSE,4.4262627,2.5261,FALSE,217.505252,"{'voigt': 115.181, 'reuss': 107.676, 'vrh': 111.428}","{'voigt': 68.008, 'reuss': 62.397, 'vrh': 65.203}"
mp-1185882,MgHgO3,5,Mg1 Hg1 O3,3.973459,3.973459,3.973459,90,90,90,cubic,Pm-3m,2.0172459,-4.313778648,-0.956973635,0.512373026,FALSE,7.223299178,0,FALSE,62.7344664,,
mp-29483,MgInBr3,20,Mg1 In1 Br3,3.95662123,9.5483782,15.45483301,90,90,90,ortho,Pnma,0,-3.334993822,-1.47489715,0.011251461,FALSE,4.309637866,2.2355,FALSE,583.8730184,,
mp-1185889,MgInO3,5,Mg1 In1 O3,3.883706,3.883706,3.883706,90,90,90,cubic,Pm-3m,1.0716981,-5.259050988,-1.412345633,0.800011728,FALSE,5.304360757,0,FALSE,58.57860674,,
mp-1232299,MgInS3,10,Mg1 In1 S3,6.809266424,6.809266424,6.516233002,75.66313301,75.66313301,120.2119545,mono,C2/m,0.0386883,-4.295739852,-0.93479536,0.181166158,FALSE,3.449025662,0,FALSE,226.5884748,,
mp-1232193,MgInSe3,20,Mg1 In1 Se3,7.029376502,10.553355,8.510194729,90,109.5588299,90,mono,C2/m,0.0066698,-3.738031033,-0.762555395,0.279277628,FALSE,4.198219718,0,FALSE,594.8880359,,
mp-1232401,MgInSe3,30,Mg1 In1 Se3,6.589908,6.589908228,30.146029,90,90,119.9999989,trig,R-3,0.8208543,-3.739910138,-0.764434499,0.277398523,FALSE,3.304244611,0,FALSE,1133.755658,,
mp-1237970,MgInSe3,10,Mg1 In1 Se3,6.566839408,6.566839408,8.02703332,81.46357952,81.46357952,119.4594492,mono,C2/m,0.1334849,-3.750943127,-0.775467489,0.266365534,FALSE,4.335395818,0,FALSE,288.0326028,,
mp-1016826,MgIrO3,5,Mg1 Ir1 O3,3.921368,3.921368,3.921368,90,90,90,cubic,Pm-3m,1.0065614,-6.250591468,-1.188034026,0.783825347,FALSE,7.284422689,0,FALSE,60.29937372,"{'voigt': 172.48, 'reuss': 172.48, 'vrh': 172.48}","{'voigt': 17.06, 'reuss': 15.092, 'vrh': 16.076}"
mp-770581,MgMnO3,20,Mg1 Mn1 O3,5.008101,5.227589,7.304405,90,90,90,ortho,Pnma,11.9977123,-7.416279121,-2.289005457,0.076736935,FALSE,4.419545804,0.6265,TRUE,191.2314682,,
mp-770618,MgMnO3,10,Mg1 Mn1 O3,5.381283557,5.381250292,5.381132296,54.57638601,54.57836698,54.57589179,trig,R-3,5.9999998,-7.493016056,-2.365742392,0,TRUE,4.389989283,0,FALSE,96.25948703,,
mp-976446,MgMnO3,5,Mg1 Mn1 O3,3.73567,3.73567,3.73567,90,90,90,cubic,Pm-3m,3.0942055,-7.002803858,-1.875530194,0.490212198,FALSE,4.052952306,0,FALSE,52.13213536,,
mp-1185896,MgMoO3,5,Mg1 Mo1 O3,4.002462,4.002462,4.002462,90,90,90,cubic,Pm-3m,1.9376165,-7.251489126,-1.787488498,0.640768283,FALSE,4.357174622,0,FALSE,64.11824875,,
mp-1342607,MgMoO3,20,Mg1 Mo1 O3,5.279528,5.403173,7.850493,90,90,90,ortho,Pnma,7.9999228,-7.832319318,-2.36831869,0.059938091,FALSE,4.990059311,0.0679,FALSE,223.9447581,,
mp-1206415,MgNi3B,5,Mg1 Ni3 B1,3.862388,3.862388,3.862388,90,90,90,cubic,Pm-3m,0.1910327,-5.395825264,-0.265770899,0.043298927,FALSE,6.086498228,0,FALSE,57.61926278,,
mp-10700,MgNi3C,5,Mg1 Ni3 C1,3.78357767,3.78360493,3.7835918,90,90,90,cubic,Pm-3m,0.5675262,-5.770199084,-0.130289974,0,TRUE,6.511522036,0,FALSE,54.16424725,"{'voigt': 168.29, 'reuss': 168.29, 'vrh': 168.29}","{'voigt': 63.165, 'reuss': 48.429, 'vrh': 55.797}"