mp_id,formula,sites,composition,a_edge (angstrom),b_edge (angstrom),c_edge (angstrom),alpha_ang (deg),beta_ang (deg),gamma_ang (deg),crystal_system,space_group,total_magnetisation (bohr),energy_per_atom (eV/atom),formation_energy (eV/atom),energy_above_hull (eV/atom),stable,density (g/cc),band_gap (eV),direct_bandgap,volume (cubic-angstrom),bulk_modulus (GPa),shear_modulus (GPa)
mp-557795,LaMnO3,20,La1 Mn1 O3,5.971485316,5.433429093,10.413179,90,90,61.57895617,mono,P2_1/c,15.9994373,-8.45312061,-2.664739528,0.470525273,FALSE,5.406020375,1.4409,FALSE,297.14103,,
mp-566602,LaMnO3,20,La1 Mn1 O3,10.474801,5.716901,6.227644206,62.94228853,90,90,mono,P2_1/c,16.0003435,-8.503579955,-2.715198872,0.420065929,FALSE,4.836735523,1.6926,FALSE,332.1145957,,
mp-645158,LaMnO3,20,La1 Mn1 O3,10.297857,5.674393,6.043189751,70.70900253,90,90,mono,P2_1/c,16.0006786,-8.502294801,-2.713913719,0.421351082,FALSE,4.819516844,0.9889,FALSE,333.3011409,,
mp-989515,LaMoN3,5,La1 Mo1 N3,3.898316,3.898316,4.65975,90,90,90,tet,P4mm,0.0001005,-9.23118073,-1.07188264,0.041644898,FALSE,6.492341435,0,FALSE,70.81360397,,
mp-989534,LaMoN3,10,La1 Mo1 N3,3.89039,5.83559,7.987789533,71.09462573,90,90,mono,P2_1/m,8.50E-05,-9.250023062,-1.090724972,0.022802566,FALSE,5.359535448,1.2238,TRUE,171.5619197,,
mp-989552,LaMoN3,10,La1 Mo1 N3,5.740910484,5.740910484,5.740909642,59.84629482,59.84629482,59.84629786,trig,R3c,5.24E-05,-9.243476604,-1.084178514,0.029349024,FALSE,6.896652452,1.1509,FALSE,133.3244203,,
mp-989603,LaMoN3,10,La1 Mo1 N3,7.703679827,7.703679827,3.96224662,90,90,136.1985766,ortho,Ama2,0,-9.25248958,-1.09319149,0.020336049,FALSE,5.64940749,0.8051,FALSE,162.759049,,
mp-989631,LaMoN3,20,La1 Mo1 N3,7.386663758,7.386663758,6.302621913,77.01613387,77.01613387,85.99538973,mono,C2/c,0,-9.272825628,-1.113527538,0,TRUE,5.63308226,2.0751,FALSE,326.4614816,,
mp-1201689,LaNi3B,40,La1 Ni3 B1,9.603839721,9.603839721,7.160559,90,90,118.0176237,ortho,Cmcm,0.000299,-6.22973408,-0.438572296,0.003091422,FALSE,7.423096718,0,FALSE,583.0430279,,
mp-1203921,LaNi3B,40,La1 Ni3 B1,9.64092516,9.64092516,7.130319,90,90,118.5685919,ortho,Cmcm,0.003008,-6.232549205,-0.441387422,0.000276296,FALSE,7.435728647,0,FALSE,582.0525455,,
mp-1205795,LaNi3B,10,La1 Ni3 B1,5.955957335,5.955957335,5.955957335,131.3224446,107.0304009,92.68385703,ortho,Imma,1.00E-07,-6.232825501,-0.441663718,0,TRUE,7.567848904,0,FALSE,142.9727536,,
mp-1207245,LaNiGe3,5,La1 Ni1 Ge3,4.402065012,4.402063042,5.756151097,112.5015174,112.5016305,89.95103547,tet,I4mm,2.05E-05,-5.545262144,-0.628216674,0,TRUE,7.355085743,0,FALSE,93.81064215,,
mp-1075921,LaNiO3,5,La1 Ni1 O3,3.856999,3.856999,3.856999,90,90,90,cubic,Pm-3m,0.9977953,-7.548532024,-2.436526664,0.035178056,FALSE,7.107611805,0,FALSE,57.37841916,,
mp-1278441,LaNiO3,20,La1 Ni1 O3,5.46805051,6.687176347,6.686765365,70.42143197,90.01808041,90.02295612,ortho,Cmmm,3.9981224,-7.540139836,-2.428134476,0.043570244,FALSE,7.081181615,0,FALSE,230.370326,,
mp-1284950,LaNiO3,20,La1 Ni1 O3,5.433893398,7.718360475,5.556433748,89.90964166,90.12785684,91.57863494,tri,P-1,0.0001582,-7.563821507,-2.451816146,0.019888574,FALSE,7.002714214,0.356,FALSE,232.951691,,
mp-19339,LaNiO3,10,La1 Ni1 O3,5.381489902,5.381490106,5.381483561,60.90056947,60.90059495,60.90047373,trig,R-3c,1.999905,-7.58371008,-2.47170472,0,TRUE,7.254091285,0,FALSE,112.4395912,,
mp-569538,LaNiSb3,40,La1 Ni1 Sb3,6.26613721,12.23154896,13.01603827,90.00099244,90.00034331,89.99935684,ortho,Pbcm,0.000139,-5.385068835,-0.764439334,0,TRUE,7.495383444,0,FALSE,997.6085791,,
mp-989564,LaOsN3,5,La1 Os1 N3,3.950555,3.950555,3.950555,90,90,90,cubic,Pm-3m,0.0002372,-8.794814944,-0.55917339,0.053189756,FALSE,9.996103463,0,FALSE,61.65585681,"{'voigt': 243.043, 'reuss': 243.043, 'vrh': 243.043}","{'voigt': 93.869, 'reuss': 91.022, 'vrh': 92.446}"
mp-989588,LaOsN3,10,La1 Os1 N3,5.570318313,5.570318313,5.570318546,60.29869774,60.29869774,60.29869398,trig,R-3c,0.0002511,-8.811200116,-0.575558562,0.036804584,FALSE,10.01807673,0,FALSE,123.0412464,,
mp-989607,LaOsN3,20,La1 Os1 N3,5.574038,5.578766,7.920005,90,90,90,ortho,Pnma,0.000897,-8.810664739,-0.575023185,0.037339962,FALSE,10.00994163,0,FALSE,246.2824846,,
mp-989621,LaOsN3,10,La1 Os1 N3,3.6794681,5.6701609,6.71104745,90.00002693,90.00001056,89.99999994,ortho,Pmma,0,-8.8480047,-0.612363146,0,TRUE,8.803681884,0,FALSE,140.0137651,,
mp-989632,LaOsN3,20,La1 Os1 N3,10.249577,4.843738,7.218384987,71.26044247,90,90,mono,P2_1/c,7.78E-05,-8.82753778,-0.591896226,0.02046692,FALSE,7.264297937,0.0272,FALSE,339.3684175,,
mp-989641,LaOsN3,10,La1 Os1 N3,4.766719,3.836983,7.408526216,82.88486302,90,90,mono,P2_1/m,4.64E-05,-8.823106173,-0.587464619,0.024898527,FALSE,9.167505202,0,FALSE,134.4571528,,
mp-1017581,LaPd3C,5,La1 Pd3 C1,4.384889,4.384889,4.384889,90,90,90,cubic,Pm-3m,0.0028151,-6.130292684,-0.189429078,0.467590356,FALSE,9.260488555,0,FALSE,84.30936379,"{'voigt': 139.827, 'reuss': 139.822, 'vrh': 139.825}","{'voigt': -8.941, 'reuss': -227.257, 'vrh': -118.099}"
mp-16415,LaPdO3,20,La1 Pd1 O3,5.619867201,5.91080386,7.823997522,90.00083176,90.00225173,89.99945815,ortho,Pnma,0.019214,-7.354187217,-2.362232831,0,TRUE,7.496436967,0,FALSE,259.8970232,,
mp-1017582,LaPt3C,5,La1 Pt3 C1,4.406794,4.406794,4.406794,90,90,90,cubic,Pm-3m,0.0481778,-6.693554388,-0.217939876,0.513300567,FALSE,14.28426455,0,FALSE,85.57920512,"{'voigt': 164.429, 'reuss': 164.429, 'vrh': 164.429}","{'voigt': -20.302, 'reuss': 384.687, 'vrh': 182.192}"
mp-1185084,LaPtO3,5,La1 Pt1 O3,4.089271,4.089271,4.089271,90,90,90,cubic,Pm-3m,0.0038353,-7.186035962,-2.015831274,0.425225818,FALSE,9.27600052,0,FALSE,68.38135117,,
mp-989581,LaReN3,10,La1 Re1 N3,5.577261499,5.577261499,5.577261327,60.28365003,60.28365003,60.28363382,trig,R-3c,0.0124826,-22.83747358,-0.929144193,0,TRUE,9.87586229,0,FALSE,123.4602017,,
mp-989602,LaReN3,5,La1 Re1 N3,3.95489279,3.95489279,3.95489279,90,90,90,cubic,Pm-3m,5.91E-05,-22.83123079,-0.922901401,0.006242792,FALSE,9.855255019,0,FALSE,61.85917807,,
mp-989614,LaReN3,20,La1 Re1 N3,5.374654,7.063151,11.27883928,59.1872081,90,90,mono,P2_1/c,0.0001598,-22.79530154,-0.886972159,0.042172034,FALSE,6.631373963,1.4312,FALSE,367.7295103,,
mp-1206401,LaRh3C,5,La1 Rh3 C1,4.266945,4.266945,4.266945,90,90,90,cubic,Pm-3m,0.0001144,-7.624107766,-0.372588525,0.048086153,FALSE,9.82446371,0,FALSE,77.687498,,
mp-5163,LaRhO3,20,La1 Rh1 O3,5.50481427,5.76156261,7.90193892,90,90,90,ortho,Pnma,0,-7.973849524,-2.545009926,0,TRUE,7.680766937,0.594,FALSE,250.6205188,"{'voigt': 173.694, 'reuss': 173.027, 'vrh': 173.36}","{'voigt': 64.358, 'reuss': 53.201, 'vrh': 58.779}"
mp-20472,LaRuO3,20,La1 Ru1 O3,5.476499,5.913106,7.92462,90,90,90,ortho,Pnma,3.9931694,-8.37096231,-2.560103778,0.044498394,FALSE,7.453577075,0,FALSE,256.6239132,,
mp-1211524,LaSb3Pd,40,La1 Sb3 Pd1,6.41118279,12.55580916,13.13921043,90.00098618,89.99925372,90.0003308,ortho,Pbcm,1.00E-07,-26.78566516,-0.820828957,0,TRUE,7.66915723,0,FALSE,1057.674742,,
mp-1222966,LaSbSe3,20,La1 Sb1 Se3,4.118099,11.184008,12.255458,90,90,90,ortho,Pnma,1.47E-05,-5.30482389,-1.394275334,0.033330648,FALSE,5.85488093,0.9761,FALSE,564.4478173,,
mp-1096800,LaScO3,5,La1 Sc1 O3,4.078908,4.078908,4.078908,90,90,90,cubic,Pm-3m,0.0012112,-8.9689534,-3.746481555,0.204081823,FALSE,5.673387094,2.8177,TRUE,67.86279299,,
mp-31116,LaScO3,20,La1 Sc1 O3,5.68506091,5.80353077,8.10225831,90,90,90,ortho,Pnma,0,-9.173035223,-3.950563378,0,TRUE,5.761036662,3.8973,TRUE,267.3212593,"{'voigt': 154.331, 'reuss': 153.518, 'vrh': 153.924}","{'voigt': 79.326, 'reuss': 78.699, 'vrh': 79.013}"
mp-1190131,LaScS3,20,La1 Sc1 S3,6.58114518,7.21722551,9.64897414,90,90,90,ortho,Pnma,0,-15.42371525,-2.374062289,0,TRUE,4.058837585,1.6446,TRUE,458.3031998,,
mp-2914,LaSi3Ir,5,La1 Si3 Ir1,4.287820485,4.287820148,5.794099692,111.7166125,111.7166039,90.00000711,tet,I4mm,1.00E-06,-6.87115201,-0.861072935,0,TRUE,7.598248318,0,FALSE,90.77789752,"{'voigt': 122.868, 'reuss': 122.696, 'vrh': 122.782}","{'voigt': 67.864, 'reuss': 67.524, 'vrh': 67.694}"
mp-1069882,LaSi3Os,5,La1 Si3 Os1,5.838141198,5.838141198,5.838141198,136.9314778,136.9314778,62.5434963,tet,I4mm,2.20E-06,-7.141586012,-0.653720287,0,TRUE,7.489241424,0,FALSE,91.65861763,,
mp-1070124,LaSi3Rh,5,La1 Si3 Rh1,5.784972992,5.784972992,5.784972992,136.6875476,136.6875476,62.91914798,tet,I4mm,2.00E-06,-6.555242764,-0.839988951,0,TRUE,6.018660122,0,FALSE,89.96151325,,
mp-1069594,LaSi3Ru,5,La1 Si3 Ru1,5.824062573,5.824062573,5.824062573,137.0380075,137.0380075,62.37957667,tet,I4mm,3.49E-05,-6.775009486,-0.677736739,0,TRUE,5.939497871,0,FALSE,90.64736861,,
mp-541249,LaSiAs3,40,La1 Si1 As3,6.012619,6.132181,26.680201,90,90,90,ortho,Pna2_1,0.0726791,-17.32147128,-0.793243731,0.011344865,FALSE,5.29037843,0,FALSE,983.711497,,
mp-648984,LaSiAs3,40,La1 Si1 As3,5.91850973,6.05022648,26.60154643,90,90,90,ortho,Pbca,0.0004212,-17.28559781,-0.757370256,0.04721834,FALSE,5.463407619,0,FALSE,952.5568012,,
mp-1232371,LaSiP3,40,La1 Si1 P3,5.722235,5.80105,25.793792,90,90,90,ortho,Pbca,9.03E-05,-13.87461506,-0.769660309,0.092182144,FALSE,4.032536916,0,FALSE,856.2241864,,
mp-1232374,LaSiP3,40,La1 Si1 P3,5.78309152,5.98363527,25.53921043,90,90,90,ortho,Pna2_1,0,-13.9667972,-0.861842453,0,TRUE,3.906908122,0.5185,FALSE,883.7565491,,
mp-1206882,LaSiPt3,5,La1 Si1 Pt3,4.14265914,4.14265914,5.45411186,90,90,90,tet,P4mm,1.00E-07,-39.79285996,-1.19652086,0,TRUE,13.34519097,0,FALSE,93.60142109,,
mp-778450,LaSmO3,20,La1 Sm1 O3,6.030177,6.214502,8.731912,90,90,90,ortho,Pna2_1,6.17E-05,-8.700975468,-3.801280217,0.067660477,FALSE,6.845937156,4.2879,TRUE,327.2244469,,
mp-30756,LaSn3Ru,40,La1 Sn3 Ru1,9.82742301,9.82745436,9.8274554,90.00003253,90.00005329,90.00001545,cubic,Pm-3n,1.265403,-5.779009333,-0.531184291,0,TRUE,8.343349266,0,FALSE,949.1214036,,
mp-1185122,LaSnO3,5,La1 Sn1 O3,4.213459,4.213459,4.213459,90,90,90,cubic,Pm-3m,0.0009617,-7.205669656,-2.447777261,0.525964737,FALSE,6.78430801,0,FALSE,74.80253514,,
mp-989620,LaTaN3,20,La1 Ta1 N3,5.763247,7.116368,8.332836231,54.33877234,90,90,mono,P2_1/c,0.0001013,-22.5650975,-1.420524511,0.037732602,FALSE,8.656365811,0.6895,FALSE,277.6707981,,
mp-1239192,LaTaO3,5,La1 Ta1 O3,4.073013,4.073013,4.073013,90,90,90,cubic,Pm-3m,0.0008774,-9.458368586,-3.129005053,0.33641021,FALSE,9.040122158,0,FALSE,67.568984,,
mp-989406,LaTcN3,10,La1 Tc1 N3,3.552912,5.708911,7.463624075,70.2914568,90,90,mono,P2/m,7.64E-05,-17.41719143,-0.798052575,0.040955397,FALSE,6.499746167,0,FALSE,142.5184288,,
mp-989593,LaTcN3,10,La1 Tc1 N3,5.578939911,5.578939911,5.578940418,60.50393108,60.50393108,60.50392938,trig,R-3c,0.0016029,-17.42454334,-0.805404482,0.033603491,FALSE,7.459493257,0,FALSE,124.1818418,,
mp-989619,LaTcN3,20,La1 Tc1 N3,7.387449346,7.387449346,6.192098754,77.48969471,77.48969471,87.60435925,mono,C2/c,6.60E-06,-17.45814683,-0.839007972,0,TRUE,5.752391127,0,FALSE,322.0690634,,
mp-20085,LaTiGe3,10,La1 Ti1 Ge3,6.29781764,6.297816134,5.93978851,90,90,120.0000026,hex_,P6_3/mmc,1.43E-05,-17.63942721,-0.779733219,0,TRUE,6.587529244,0,FALSE,204.0241892,,
mp-22013,LaTiO3,20,La1 Ti1 O3,5.56856,5.673297,7.938288,90,90,90,ortho,Pnma,0.0392361,-9.174762257,-3.63968583,0.025448955,FALSE,6.217956136,0,FALSE,250.7871466,,
mp-8020,LaTiO3,5,La1 Ti1 O3,3.958938,3.958938,3.958938,90,90,90,cubic,Pm-3m,0.002878,-9.13262696,-3.597550533,0.067584252,FALSE,6.282852088,0,FALSE,62.04918782,"{'voigt': 183.62, 'reuss': 183.62, 'vrh': 183.62}","{'voigt': 71.12, 'reuss': 60.987, 'vrh': 66.054}"
mp-1211414,LaTiS3,20,La1 Ti1 S3,3.779885,8.058379,13.248556,90,90,90,ortho,Pnma,2.6311429,-7.125148312,-2.075832747,0.023615841,FALSE,4.657477641,0,FALSE,403.5476494,,
mp-29257,LaTlO3,10,La1 Tl1 O3,3.751911909,3.751911909,13.027912,90,90,119.9999984,hex_,P6_3mc,2.93E-05,-6.761665069,-2.331392622,0.156790492,FALSE,8.182080686,0.3497,FALSE,158.8220221,,
mp-13374,LaTmO3,20,La1 Tm1 O3,5.85709,6.051442,8.468151,90,90,90,ortho,Pnma,7.31E-05,-8.814095406,-3.961617086,0.021383826,FALSE,7.874661618,4.414,FALSE,300.1437927,,
mp-1199053,LaTmS3,40,La1 Tm1 S3,3.9932477,11.05744785,21.55754485,78.6886192,90,90,mono,P2_1/m,0,-20.25269934,-2.458534196,0,TRUE,5.750374711,0.7541,TRUE,933.3866458,,
mp-556841,LaTmS3,60,La1 Tm1 S3,3.98277579,16.39311766,21.37012333,90,90,90,ortho,Pnma,1.00E-07,-20.22737899,-2.433213842,0.025320355,FALSE,5.770248868,1.1335,TRUE,1395.257749,,
mp-1078802,LaVGe3,10,La1 V1 Ge3,6.260616776,6.260616776,5.67791287,90,90,120.0000025,hex_,P6_3/mmc,0.0003544,-6.150116698,-0.57231735,0,TRUE,7.026475743,0,FALSE,192.7318925,,
mp-989403,LaVN3,10,La1 V1 N3,3.629583,6.02494145,6.328775638,106.9625173,96.41196281,90.8380304,tri,P1,0.0002938,-15.53421421,-1.290092623,0.034311582,FALSE,5.860940487,0.5744,FALSE,131.3865339,,
mp-19053,LaVO3,5,La1 V1 O3,3.950068,3.950068,3.950068,90,90,90,cubic,Pm-3m,2.0001279,-8.874802302,-3.102043064,0.177259387,FALSE,6.408106455,0,FALSE,61.63305796,,
mp-19350,LaVO3,20,La1 V1 O3,5.62405784,7.706708683,5.571443663,90.01129201,90.00250722,89.83997778,ortho,Pnma,0.0002747,-9.052061689,-3.279302451,0,TRUE,6.542122369,0,FALSE,241.4819988,,
mp-1211380,LaVS3,20,La1 V1 S3,3.837115,7.806454,13.233138,90,90,90,ortho,Pnma,8.005169,-7.140139034,-1.853140658,0.05065281,FALSE,4.793109905,0,FALSE,396.3888793,,
mp-1211432,LaVSb3,20,La1 V1 Sb3,6.151936,6.315591,13.425593,90,90,90,ortho,Pbcm,3.9642095,-24.86963512,-0.6789745,0.004676138,FALSE,7.068742035,0,FALSE,521.6260636,,
mp-989455,LaWN3,10,La1 W1 N3,5.644393672,5.644393672,5.64439342,60.62105804,60.62105804,60.62105723,trig,R-3c,5.19E-05,-22.90995583,-1.210190513,0.034093131,FALSE,9.395232421,0,FALSE,128.9393284,,
mp-989497,LaWN3,5,La1 W1 N3,3.92323858,3.92323858,4.35371765,90,90,90,tet,P4mm,2.00E-07,-22.9243557,-1.224590378,0.019693266,FALSE,9.038851206,0,FALSE,67.01155549,,
mp-989524,LaWN3,10,La1 W1 N3,5.685491361,5.685491361,5.685491077,60.01458804,60.01458804,60.0145853,trig,R3c,0,-22.94404896,-1.244283644,0,TRUE,9.31880757,1.2096,FALSE,129.9967779,,
mp-989601,LaWN3,5,La1 W1 N3,4.047465765,4.047465765,4.047466475,89.57171754,89.57171754,89.57172064,trig,R3m,5.33E-05,-22.92071982,-1.220954496,0.023329148,FALSE,9.135861941,0.7064,FALSE,66.29998166,,
mp-989626,LaWN3,10,La1 W1 N3,5.784456747,5.784456747,3.95800923,90,90,94.6747204,ortho,Amm2,6.00E-07,-22.9285976,-1.228832279,0.015451365,FALSE,9.177789389,0,FALSE,131.9941989,,
mp-989630,LaWN3,20,La1 W1 N3,5.654693,5.692628,8.00222,90,90,90,ortho,Pnma,3.69E-05,-22.91343964,-1.213674321,0.030609324,FALSE,9.405688779,0,FALSE,257.5919716,,
mp-989633,LaWN3,20,La1 W1 N3,7.433985812,7.433846762,6.348757924,76.7395911,76.73688854,85.96467674,mono,C2/c,0,-22.90675835,-1.206993035,0.03729061,FALSE,7.29042532,2.3862,FALSE,332.3303937,,
mp-989646,LaWN3,10,La1 W1 N3,3.88455453,5.851470092,7.958095272,70.58530128,90,90,mono,P2_1/m,0,-22.89468504,-1.194919717,0.049363927,FALSE,7.100723676,1.7118,TRUE,170.604436,,
mp-989699,LaWN3,5,La1 W1 N3,4.656111762,4.656111762,3.292368,90,90,119.9999966,mono,Cm,0.0005251,-20.4979209,1.20184442,2.446128064,FALSE,9.798895481,0,FALSE,61.81385242,,
mp-1222904,LaYC3,20,La1 Y1 C3,7.401054833,7.401054833,7.401054833,109.4712206,109.4712206,109.4712206,cubic,I2_13,0.0111294,-7.999260447,-0.17304143,0.05385678,FALSE,5.615602799,0,FALSE,312.0749968,,
mp-10429,LaYO3,20,La1 Y1 O3,5.915933,6.123557,8.610897,90,90,90,ortho,Pnma,0.0001314,-9.132778806,-3.874982482,0.03991794,FALSE,5.872769225,4.3416,FALSE,311.943116,,
mp-1200447,LaYS3,40,La1 Y1 S3,4.02574354,11.13395924,21.76026455,78.71040024,90,90,mono,P2_1/m,0,-17.29553384,-2.46285816,0,TRUE,4.500062414,0.7898,TRUE,956.4758934,,
mp-1184965,LaZnO3,5,La1 Zn1 O3,3.9281,3.9281,3.9281,90,90,90,cubic,Pm-3m,0.0003953,-6.73076793,-2.522841184,0.131482921,FALSE,6.912586053,0,FALSE,60.61046363,,
mp-1185065,LaZrO3,5,La1 Zr1 O3,4.193758,4.193758,4.193758,90,90,90,cubic,Pm-3m,0.0019398,-9.093685098,-3.428166948,0.287102487,FALSE,6.26156938,0,FALSE,73.75816405,,
mp-28593,Li3BrO,5,Li3 Br1 O1,3.948643,3.948643,3.948643,90,90,90,cubic,Pm-3m,0,-4.39658781,-1.934252582,0.03706398,FALSE,3.148288893,4.2775,FALSE,61.56637904,"{'voigt': 48.727, 'reuss': 48.727, 'vrh': 48.727}","{'voigt': 36.711, 'reuss': 34.532, 'vrh': 35.622}"
mp-985585,Li3ClO,5,Li3 Cl1 O1,3.908337,3.908337,3.908337,90,90,90,cubic,Pm-3m,0.0001101,-4.568813878,-2.064160625,0.029024843,FALSE,2.010312574,4.9291,FALSE,59.7002311,"{'voigt': 51.628, 'reuss': 51.628, 'vrh': 51.628}","{'voigt': 38.663, 'reuss': 37.81, 'vrh': 38.236}"
mp-1185297,LiAcO3,5,Li1 Ac1 O3,3.919444,3.919444,3.919444,90,90,90,cubic,Pm-3m,2.0002079,-6.582202892,-2.407406714,0.129256687,FALSE,7.775550912,0,FALSE,60.21066048,,
mp-1398557,LiAgF3,10,Li1 Ag1 F3,5.425231,5.465485534,5.704324863,116.485334,85.85288742,118.0016143,tri,P-1,1.9852214,-7.764084155,-1.141374717,0.922600741,FALSE,4.334304368,0.2067,FALSE,131.6418552,,
mp-752605,LiAgF3,20,Li1 Ag1 F3,6.797884998,6.797884998,6.060563828,87.76999929,87.76999929,87.05385101,mono,C2/c,0.0002463,-8.635636329,-2.012926891,0.051048567,FALSE,4.085859636,0.3228,FALSE,279.2929365,,
mp-752699,LiAgF3,10,Li1 Ag1 F3,6.536792634,6.536792634,3.203465,90,90,106.0458693,ortho,Cmmm,0.0413624,-8.637460169,-2.014750731,0.049224727,FALSE,4.337327443,0,FALSE,131.5501021,,
mp-752837,LiAgF3,20,Li1 Ag1 F3,5.494201721,5.64040248,8.381144233,90.09754484,92.56637796,89.77959479,mono,P2_1/c,3.99E-05,-8.636492199,-2.013782762,0.050192696,FALSE,4.398098143,0,FALSE,259.4648184,,
mp-756821,LiAgF3,20,Li1 Ag1 F3,5.619964,5.270943,9.71852463,57.66862524,90,90,mono,P2_1/c,3.9996962,-8.613841329,-1.991131892,0.072843566,FALSE,4.691161402,0.0885,FALSE,243.2556968,,
mp-757915,LiAgF3,10,Li1 Ag1 F3,5.425231149,5.704325286,5.465485894,63.51467304,61.99838419,85.85289361,tri,P-1,2.0000359,-8.615471928,-1.99276249,0.071212968,FALSE,4.334303495,0.3374,FALSE,131.6418817,,
mp-759066,LiAgF3,10,Li1 Ag1 F3,5.940808082,5.940808082,5.940807948,54.794196,54.794196,54.79420784,trig,R3c,1.974898,-8.626771492,-2.004062054,0.059913404,FALSE,4.379391746,0,FALSE,130.286556,,
mp-760151,LiAgF3,30,Li1 Ag1 F3,5.431358862,5.431358862,15.230729,90,90,120.0000105,hex_,P6_122,6.0017945,-8.630392997,-2.007683559,0.056291899,FALSE,4.399125792,0.2356,FALSE,389.1063099,,
mp-1185313,LiAlO3,5,Li1 Al1 O3,3.709189,3.709189,3.709189,90,90,90,cubic,Pm-3m,1.999243,-6.204398784,-2.104722442,0.375126218,FALSE,2.665668053,0,FALSE,51.03133026,,
mp-559767,LiAsO3,20,Li1 As1 O3,5.220009522,6.847584682,6.847585503,84.99740085,75.4108094,75.41081511,mono,C2/c,4.60E-06,-6.233445392,-1.948859709,0.035774917,FALSE,3.763988899,2.9408,FALSE,229.1600081,,
mp-9657,LiAsO3,10,Li1 As1 O3,5.462122369,5.462123678,5.462122762,52.3011792,52.30117693,52.3011727,trig,R-3,0,-6.269220309,-1.984634626,0,TRUE,4.569008445,3.3858,FALSE,94.39200397,,
mp-1185302,LiBO3,5,Li1 B1 O3,3.307567,3.307567,3.307567,90,90,90,cubic,Pm-3m,0.0045717,-5.925629018,-1.239189487,0.966926561,FALSE,3.017312034,0,FALSE,36.18478119,,
mp-28613,LiBPt3,15,Li1 B1 Pt3,9.28120286,9.281202267,2.77546394,90,90,120.0000021,hex_,P-62m,0,-33.40461835,-0.565376087,0,TRUE,14.50827674,0,FALSE,207.0497518,,
mp-1079676,LiBeH3,10,Li1 Be1 H3,4.967656928,4.967656928,5.140391182,80.94843897,80.94843897,46.20768972,mono,C2,0,-3.488323453,-0.321556443,0.007902648,FALSE,0.69856363,4.6523,FALSE,90.21956437,,
mp-24342,LiBeH3,20,Li1 Be1 H3,4.394895,4.517409,6.276607,90,90,90,ortho,Pnma,0.0002117,-3.389977814,-0.223210804,0.106248287,FALSE,1.01151852,2.7052,FALSE,124.612857,,
mp-24817,LiBeH3,30,Li1 Be1 H3,6.012145482,6.142083002,6.783220281,104.0083014,97.22708647,90.37219757,tri,P-1,4.00E-07,-3.494190199,-0.32742319,0.002035902,FALSE,0.784770618,4.8947,FALSE,240.9268578,,
mp-24818,LiBeH3,20,Li1 Be1 H3,4.699526,6.177876608,6.511961852,96.63601795,100.2255236,106.8543587,tri,P-1,9.40E-05,-3.490937505,-0.324170495,0.005288596,FALSE,0.719270205,4.9681,FALSE,175.2445907,,
mp-570218,LiBeH3,60,Li1 Be1 H3,6.15836315,6.029295393,13.1850479,82.38848833,90,90,mono,P2_1/c,0,-3.494229017,-0.327462007,0.001997084,FALSE,0.779269947,4.9184,FALSE,485.2550004,,