mp_id,formula,sites,composition,a_edge (angstrom),b_edge (angstrom),c_edge (angstrom),alpha_ang (deg),beta_ang (deg),gamma_ang (deg),crystal_system,space_group,total_magnetisation (bohr),energy_per_atom (eV/atom),formation_energy (eV/atom),energy_above_hull (eV/atom),stable,density (g/cc),band_gap (eV),direct_bandgap,volume (cubic-angstrom),bulk_modulus (GPa),shear_modulus (GPa)
mp-1105218,NaOsO3,20,Na1 Os1 O3,5.400181319,7.563733216,5.301335821,89.99944685,90.00159102,89.99043966,ortho,Pnma,6.2211615,-7.133145111,-1.650550866,0,TRUE,8.012762741,0,FALSE,216.5358725,,
mp-998624,NaOsO3,10,Na1 Os1 O3,5.36963185,5.36963185,5.3696314,60.18851187,60.18851187,60.18850953,trig,R-3c,3.3692926,-7.123658052,-1.641063807,0.009487059,FALSE,7.890665365,0,FALSE,109.9432362,,
mp-35683,NaPF3,5,Na1 P1 F3,5.191036,5.193018993,5.339904183,95.77567692,115.570087,116.6093851,tri,P1,1.0000182,-6.511507746,-2.124063644,0.448690176,FALSE,1.704289928,0.9889,FALSE,108.1103168,,
mp-4734,NaPO3,40,Na1 P1 O3,6.14007416,6.915117821,13.67600088,61.59664818,90,90,mono,P2_1/c,0,-6.953712387,-2.633496923,0.012073411,FALSE,2.651847224,5.2087,FALSE,510.7728274,,
mp-555118,NaPO3,60,Na1 P1 O3,7.61998559,7.88601616,13.12362076,90,90,90,ortho,Pnma,0,-6.956924664,-2.6367092,0.008861134,FALSE,2.576333377,5.081,FALSE,788.6158193,,
mp-558192,NaPO3,40,Na1 P1 O3,5.95087608,7.597080671,13.07320692,58.77843958,90,90,mono,P2_1/c,0,-6.957885687,-2.637670223,0.00790011,FALSE,2.679874285,5.158,FALSE,505.430987,,
mp-648053,NaPO3,40,Na1 P1 O3,9.962815628,9.962815628,9.962815628,95.79540824,95.79540824,142.9439947,tet,I4_1/a,0.0013445,-6.926645526,-2.606430062,0.039140272,FALSE,2.397279653,4.8428,FALSE,565.0118887,,
mp-648072,NaPO3,40,Na1 P1 O3,9.693069829,9.693069829,9.693069829,98.57500686,98.57500686,134.5709504,tet,I4_1/a,8.61E-05,-6.906664931,-2.586449467,0.059120867,FALSE,2.263294751,4.8406,TRUE,598.4600565,,
mp-864891,NaPO3,30,Na1 P1 O3,6.987333398,7.036162374,7.790898551,93.44658579,103.1214267,90.03707023,tri,P-1,0,-6.965785798,-2.645570334,0,TRUE,2.728509392,5.1185,FALSE,372.3163392,,
mp-1189520,NaPS3,20,Na1 P1 S3,7.890501,6.739701,9.132623926,89.78065042,90,90,mono,P2_1/m,0.0029257,-4.699815391,-0.865360789,0,TRUE,2.053626689,1.988,FALSE,485.6658879,,
mp-865120,NaPaO3,5,Na1 Pa1 O3,4.32748724,4.32748724,4.32748724,90,90,90,cubic,Pm-3m,0,-8.586671646,-3.440691451,0,TRUE,6.188465125,2.952,FALSE,81.04148454,"{'voigt': 132.432, 'reuss': 132.432, 'vrh': 132.432}","{'voigt': 65.18, 'reuss': 50.696, 'vrh': 57.938}"
mp-1186153,NaPbO3,5,Na1 Pb1 O3,4.303905,4.303905,4.303905,90,90,90,cubic,Pm-3m,1.0103981,-5.068154572,-1.088504399,0.308695352,FALSE,5.794279118,0,FALSE,79.72380712,,
mp-1220961,NaPdF3,20,Na1 Pd1 F3,6.636765469,6.750886613,7.312087396,63.56047824,106.5139563,88.67038306,tri,P-1,2.0000001,-9.22368,-2.044560438,0.002678904,FALSE,4.470895679,0.2924,FALSE,276.9313103,,
mp-1377793,NaPdF3,20,Na1 Pd1 F3,6.798007,6.902887007,7.518175321,117.1107111,105.718457,90.76978957,tri,P-1,1.6571301,-7.847789106,-0.668669545,1.378569798,FALSE,4.1491211,0,FALSE,298.4080167,,
mp-976968,NaPdO3,5,Na1 Pd1 O3,3.991149,3.991149,3.991149,90,90,90,cubic,Pm-3m,1.8314709,-5.041261758,-0.768164637,0.264553472,FALSE,4.633705176,0,FALSE,63.57609139,"{'voigt': 104.533, 'reuss': 104.533, 'vrh': 104.533}","{'voigt': 39.411, 'reuss': 37.451, 'vrh': 38.431}"
mp-976952,NaPuO3,5,Na1 Pu1 O3,4.20646926,4.2064804,4.20650717,90,90,90,cubic,Pm-3m,3.0000005,-9.013162424,-2.828455169,0,TRUE,7.027240892,0,FALSE,74.43174875,,
mp-976923,NaReO3,5,Na1 Re1 O3,3.887614,3.887614,3.887614,90,90,90,cubic,Pm-3m,0.0003663,-7.799296918,-2.072553318,0.041938696,FALSE,7.268790548,0,FALSE,58.75561985,"{'voigt': 211.053, 'reuss': 211.053, 'vrh': 211.053}","{'voigt': 109.429, 'reuss': 83.519, 'vrh': 96.474}"
mp-977107,NaRuO3,5,Na1 Ru1 O3,3.867457,3.867457,3.867457,90,90,90,cubic,Pm-3m,0.0047866,-6.610622938,-1.518621671,0.089076717,FALSE,4.939095336,0,FALSE,57.84641929,,
mp-20011,NaSbO3,20,Na1 Sb1 O3,7.34393749,7.34393749,7.34393749,60,60,60,cubic,Fd-3m,0.0031848,-6.064616287,-2.00169528,0.055137247,FALSE,4.571165897,1.4696,FALSE,280.0734344,,
mp-22212,NaSbO3,20,Na1 Sb1 O3,5.476474,5.535948,7.796969,90,90,90,ortho,Pnma,0.0005322,-6.027857919,-1.964936912,0.091895615,FALSE,5.416017516,1.274,TRUE,236.384415,"{'voigt': 128.998, 'reuss': 128.472, 'vrh': 128.735}","{'voigt': 96.241, 'reuss': 92.13, 'vrh': 94.186}"
mp-4482,NaSbO3,10,Na1 Sb1 O3,6.105268138,6.105268122,6.105267801,51.53023186,51.53023643,51.5302247,trig,R-3,0,-6.119753534,-2.056832527,0,TRUE,4.96876642,2.7012,FALSE,128.8309838,,
mp-752755,NaSbO3,20,Na1 Sb1 O3,5.34812049,5.40063208,8.49555347,90,90,90,ortho,Pnna,0,-6.082917436,-2.019996429,0.036836098,FALSE,5.217487862,1.438,TRUE,245.3790341,,
mp-760994,NaSbO3,30,Na1 Sb1 O3,8.105306,8.164463042,8.247577545,109.3992525,109.319359,108.4515573,tri,P-1,0.0004598,-6.054098247,-1.991177241,0.065655287,FALSE,4.503248934,2.2389,TRUE,426.4461562,,
mp-1197679,NaSeO3,40,Na1 Se1 O3,11.7122713,11.7122713,10.48761755,78.60325856,78.60325856,29.19252132,mono,C2/c,3.9976286,-5.313556653,-1.377253598,0.194034118,FALSE,2.899846966,0.333,TRUE,686.9175204,,
mp-728664,NaSeO3,40,Na1 Se1 O3,11.80637855,11.80637855,10.87838634,89.19880081,89.19880081,31.88170065,mono,C2/c,0.0012425,-5.43349812,-1.497195065,0.074092651,FALSE,2.487461221,3.0973,FALSE,800.7986901,,
mp-13673,NaSiAu3,40,Na1 Si1 Au3,8.96901855,8.96901855,8.96901855,90,90,90,cubic,Pa-3,3.00E-07,-33.12265698,-0.304091856,0,TRUE,11.82013448,0,FALSE,721.4973939,,
mp-1186167,NaSiO3,5,Na1 Si1 O3,3.561251,3.561251,3.561251,90,90,90,cubic,Pm-3m,0.0074628,-6.67670851,-2.354524145,0.258056145,FALSE,3.642492917,0,FALSE,45.16559674,,
mp-977112,NaSrO3,5,Na1 Sr1 O3,4.20833,4.20833,4.20833,90,90,90,cubic,Pm-3m,3,-4.87871639,-1.303110013,0.538816025,FALSE,3.533822552,0,FALSE,74.52969848,,
mp-3858,NaTaO3,20,Na1 Ta1 O3,5.45388623,5.51999928,7.77470694,90,90,90,ortho,Pnma,0,-8.673498564,-3.062992296,0,TRUE,7.149405594,2.6172,FALSE,234.061036,,
mp-4170,NaTaO3,5,Na1 Ta1 O3,3.947854064,3.94785413,3.947865,90,90,90.004412,cubic,Pm-3m,0,-8.645744434,-3.035238167,0.027754129,FALSE,6.799149457,2.2603,FALSE,61.52965494,"{'voigt': 201.078, 'reuss': 201.078, 'vrh': 201.078}","{'voigt': 121.349, 'reuss': 102.14, 'vrh': 111.744}"
mp-4675,NaTaO3,10,Na1 Ta1 O3,3.95914,5.477129,5.477129,90,90,90,tet,P4/mbm,0,-8.66415967,-3.053653403,0.009338894,FALSE,7.044696124,2.2798,FALSE,118.7700116,"{'voigt': 145.478, 'reuss': 134.063, 'vrh': 139.77}","{'voigt': 117.946, 'reuss': 103.496, 'vrh': 110.721}"
mp-4699,NaTaO3,20,Na1 Ta1 O3,5.491890318,5.491889829,7.82031063,90,90,90.6064677,ortho,Cmcm,0,-8.670169006,-3.059662738,0.003329558,FALSE,7.095054122,2.3891,FALSE,235.8540543,"{'voigt': 129.117, 'reuss': 126.416, 'vrh': 127.767}","{'voigt': 89.157, 'reuss': 5.724, 'vrh': 47.441}"
mp-676280,NaTaO3,40,Na1 Ta1 O3,7.571481762,7.444135581,14.78526202,59.02675537,60.28675963,59.44014064,tri,P1,0.0009037,-8.577849636,-2.967343368,0.095648928,FALSE,5.735240892,3.4067,FALSE,583.5490824,,
mp-730333,NaTaO3,40,Na1 Ta1 O3,7.42763,7.437282853,12.67246936,105.8311692,90.69964474,118.7701725,tri,P1,1.9337514,-5.485820724,0.124685543,3.18767784,FALSE,5.753044326,0,FALSE,581.7432251,,
mp-754818,NaTaO3,20,Na1 Ta1 O3,7.422917075,7.422917075,7.422917075,60,60,60,cubic,Fd-3m,0.0002081,-8.586740757,-2.97623449,0.086757807,FALSE,5.786157219,2.7139,FALSE,289.2070189,,
mp-977176,NaTcO3,5,Na1 Tc1 O3,3.81537391,3.81537391,3.81537391,90,90,90,cubic,Pm-3m,7.00E-07,-7.281313588,-1.97206504,0,TRUE,5.052351619,0,FALSE,55.54069589,"{'voigt': 190.453, 'reuss': 190.453, 'vrh': 190.453}","{'voigt': 99.159, 'reuss': 85.911, 'vrh': 92.535}"
mp-977117,NaTeO3,5,Na1 Te1 O3,4.066369,4.066369,4.066369,90,90,90,cubic,Pm-3m,0.000253,-5.449349088,-1.583567151,0.132665316,FALSE,4.904352468,0,FALSE,67.23886248,"{'voigt': 137.484, 'reuss': 137.484, 'vrh': 137.484}","{'voigt': 83.946, 'reuss': 73.576, 'vrh': 78.761}"
mp-1120777,NaTiF3,5,Na1 Ti1 F3,4.158119,4.158119,4.158119,90,90,90,cubic,Pm-3m,1.8547886,-5.915472468,-2.921142528,0.235029019,FALSE,2.953016064,0,FALSE,71.89368465,,
mp-977123,NaTiO3,5,Na1 Ti1 O3,3.902333,3.902333,3.902333,90,90,90,cubic,Pm-3m,0.9900512,-7.456027912,-2.63980875,0.089884528,FALSE,3.321188015,0,FALSE,59.42551848,"{'voigt': 138.443, 'reuss': 138.443, 'vrh': 138.443}","{'voigt': 77.839, 'reuss': 59.459, 'vrh': 68.649}"
mp-5788,NaUO3,20,Na1 U1 O3,5.74520583,5.90574039,8.26116171,90,90,90,ortho,Pnma,4,-8.782765256,-3.287362496,0,TRUE,7.322682821,0.431,TRUE,280.2986899,"{'voigt': 83.988, 'reuss': 83.478, 'vrh': 83.733}","{'voigt': 56.514, 'reuss': 51.394, 'vrh': 53.954}"
mp-1120756,NaVF3,20,Na1 V1 F3,5.42093668,5.67689025,7.79968438,90,90,90,ortho,Pnma,11.9999996,-8.424366318,-3.019422332,0,TRUE,3.623053235,2.0207,TRUE,240.0279752,,
mp-20572,NaVF3,5,Na1 V1 F3,4.167837,4.167837,4.167837,90,90,90,cubic,Pm-3m,3.0002155,-8.33301641,-2.928072425,0.091349908,FALSE,3.002924466,0.6978,FALSE,72.39893495,,
mp-1099591,NaVO3,5,Na1 V1 O3,3.773809,3.773809,3.773809,90,90,90,cubic,Pm-3m,0.0006575,-7.287729564,-2.233827591,0.141920087,FALSE,3.767194413,0.2168,FALSE,53.74520795,,
mp-1101657,NaVO3,20,Na1 V1 O3,7.823921574,7.823921574,6.238242268,66.34111706,113.6588829,106.9159798,mono,C2/c,0.0009042,-7.386776706,-2.332874733,0.042872946,FALSE,2.558787976,3.2243,FALSE,316.5071105,,
mp-19083,NaVO3,20,Na1 V1 O3,5.891257971,7.093378656,7.093378971,82.96980115,75.21124827,75.211234,mono,C2/c,0,-7.429649651,-2.375747678,0,TRUE,2.928057867,3.2386,FALSE,276.591046,,
mp-555665,NaVO3,20,Na1 V1 O3,3.59463913,5.34175319,14.30031451,90,90,90,ortho,Pnma,0,-7.423894174,-2.369992201,0.005755478,FALSE,2.949395868,3.0358,FALSE,274.5899922,,
mp-763901,NaVO3,20,Na1 V1 O3,7.81697393,7.81697393,7.81697393,133.042758,106.8543373,91.57677775,ortho,Ibam,0.0027199,-7.386636209,-2.332734236,0.043013442,FALSE,2.560685252,3.2017,FALSE,316.2726023,,
mp-19328,NaWO3,5,Na1 W1 O3,3.969588,3.969588,3.969588,90,90,90,cubic,Pm-3m,0.9993665,-7.93570917,-2.106962365,0.055300456,FALSE,6.764876751,0,FALSE,62.55129455,,
mp-3795,NaZnF3,20,Na1 Zn1 F3,5.35051557,5.5832596,7.70171572,90,90,90,ortho,Pnma,0,-7.12558551,-2.75643615,0,TRUE,4.197440733,3.7676,TRUE,230.0757984,"{'voigt': 69.135, 'reuss': 68.513, 'vrh': 68.824}","{'voigt': 30.483, 'reuss': 30.042, 'vrh': 30.263}"
mp-1180211,NaZnO3,40,Na1 Zn1 O3,12.781385,12.781385,3.59029,90,90,90,tet,P4_2/mbc,9.8689991,-4.404077636,-0.915008156,0.345450834,FALSE,3.089288316,0,FALSE,586.5234265,,
mp-1186198,NaZnO3,5,Na1 Zn1 O3,3.907165,3.907165,3.907165,90,90,90,cubic,Pm-3m,0.0058951,-4.338006124,-0.848936643,0.411522346,FALSE,3.797244504,0,FALSE,59.64653996,,
mp-1220590,Nb3SnH,10,Nb3 Sn1 H1,5.391959608,5.391959608,5.37328962,90,90,90.23250266,ortho,Ama2,8.00E-07,-20.75976207,-0.279058048,0,TRUE,8.470497283,0,FALSE,156.2175903,,
mp-1220523,Nb3ZnAu,20,Nb3 Zn1 Au1,7.024363,7.024363,7.024363,90,90,90,cubic,P2_13,0.0004864,-7.046813446,-0.0793053,0.045375436,FALSE,10.36958883,0,FALSE,346.5938401,,
mp-1203481,NbAgO3,40,Nb1 Ag1 O3,5.662245,5.767348,15.765765,90,90,90,ortho,Pmc2_1,6.03E-05,-7.736745504,-2.179120357,0.039513493,FALSE,6.418921739,1.7362,FALSE,514.8489877,,
mp-1205362,NbAgO3,20,Nb1 Ag1 O3,5.633597688,5.633597688,8.01232,90,90,90.40294273,ortho,Cmcm,0.0001582,-7.725453274,-2.167828127,0.050805722,FALSE,6.49819505,0.9892,FALSE,254.2840999,,
mp-1220387,NbAgO3,10,Nb1 Ag1 O3,5.632712,5.632712,4.031777,90,90,90,tet,P4/mbm,4.30E-06,-7.722826699,-2.165201552,0.053432297,FALSE,6.458777992,1.0243,TRUE,127.9179809,,
mp-12725,NbAgO3,5,Nb1 Ag1 O3,4.023986,4.023986,4.023986,90,90,90,cubic,Pm-3m,2.86E-05,-7.705405074,-2.147779927,0.070853922,FALSE,6.339902421,1.3336,FALSE,65.15824574,,
mp-2349989,NbAgO3,10,Nb1 Ag1 O3,6.849989524,6.849989524,3.11296407,90,90,110.2638352,ortho,Pmmm,0,-7.709486103,-2.151860956,0.066772893,FALSE,6.029416908,0.9228,TRUE,137.0271541,"{'voigt': 133.079, 'reuss': 101.5, 'vrh': 117.29}","{'voigt': 55.809, 'reuss': 26.045, 'vrh': 40.927}"
mp-5537,NbAgO3,40,Nb1 Ag1 O3,5.670564,5.747751,15.762602,90,90,90,ortho,Pbcm,0.002005,-7.737816843,-2.180191697,0.038442153,FALSE,6.432648663,1.4737,FALSE,513.7503278,,
mp-557680,NbAgO3,10,Nb1 Ag1 O3,6.84232473,6.84232473,3.115601,90,90,110.1778604,ortho,Cmmm,0.000501,-7.705599766,-2.147974619,0.07065923,FALSE,6.034482046,0.8149,FALSE,136.9121382,,
mp-1206988,NbBRh3,5,Nb1 B1 Rh3,4.112569,4.112569,4.112569,90,90,90,cubic,Pm-3m,0.9753499,-8.04424141,-0.269517326,0.230620633,FALSE,9.84609085,0,FALSE,69.55679981,,
mp-1186216,NbBiO3,5,Nb1 Bi1 O3,4.109713,4.109713,4.109713,90,90,90,cubic,Pm-3m,0.0001117,-7.766860284,-1.999815811,0.42639619,FALSE,8.370278615,0,FALSE,69.41198792,,
mp-1220556,NbBr3O,20,Nb1 Br3 O1,3.938516395,11.93692868,11.94580251,90,90.53614677,90,mono,P2_1/c,0,-5.811502866,-1.819481736,0,TRUE,4.123225138,1.9457,FALSE,561.5928538,,
mp-606393,NbBr3O,20,Nb1 Br3 O1,11.87544428,11.87544428,3.93837323,90,90,90,tet,P-42_1m,0,-5.811467689,-1.819446558,3.52E-05,FALSE,4.16909718,1.9659,FALSE,555.4137196,"{'voigt': 9.35, 'reuss': 4.299, 'vrh': 6.824}","{'voigt': 5.631, 'reuss': 2.676, 'vrh': 4.154}"
mp-27815,NbCl3O,20,Nb1 Cl3 O1,11.23242321,11.23242321,3.83830787,90,90,90,tet,P4_2/mnm,0,-6.242557778,-2.123582573,0.006079837,FALSE,2.952536978,2.4018,FALSE,484.2690602,,
mp-556422,NbCl3O,20,Nb1 Cl3 O1,11.22192364,11.22192364,3.9294847,90,90,90,tet,P-42_1m,0,-6.248637615,-2.12966241,0,TRUE,2.889427806,2.8075,FALSE,494.8461783,,
mp-1079356,NbCrN3,10,Nb1 Cr1 N3,3.441502,3.441502,9.560803,90,90,90,tet,P4/nmm,3.5642628,-13.83475837,-0.396024555,0.422078142,FALSE,5.482143983,0,FALSE,113.237539,,
mp-17272,NbCuO3,20,Nb1 Cu1 O3,6.450586584,6.450586584,6.754066241,90.78338025,90.78338025,83.51991815,mono,C2/m,0,-8.108456083,-2.299577138,0.017718185,FALSE,4.863962376,0.959,FALSE,279.194738,,
mp-1186220,NbFeO3,5,Nb1 Fe1 O3,4.003642,4.003642,4.003642,90,90,90,cubic,Pm-3m,3.1422007,-8.593945928,-1.910904075,0.555858302,FALSE,5.090930893,0,FALSE,64.17497522,,
mp-1372548,NbHO3,20,Nb1 H1 O3,6.756104,6.767694682,6.790883477,109.8503522,108.8253782,109.3055751,tri,P1,0.0112295,-4.217564414,1.450506485,3.958451076,FALSE,3.923002625,0,FALSE,240.2764474,,
mp-33932,NbHO3,20,Nb1 H1 O3,6.703689,6.724743431,6.741557331,109.2320898,109.293438,109.2158179,tri,P1,4.71E-05,-8.142377935,-2.474307037,0.033637554,FALSE,3.996227664,2.6221,FALSE,235.8737323,,
mp-626528,NbHO3,20,Nb1 H1 O3,6.756104,6.790882678,6.767694233,109.8503525,109.3055764,108.8253805,tri,P1,1.56E-05,-8.130934746,-2.462863847,0.045080743,FALSE,3.923003534,2.531,FALSE,240.2763918,,
mp-626536,NbHO3,20,Nb1 H1 O3,6.801603318,6.745081324,6.77872703,109.8068892,108.583076,109.9873042,tri,P1,1.70E-06,-8.097281327,-2.429210428,0.078734162,FALSE,3.936115947,0.0005,FALSE,239.4759572,,
mp-673347,NbHO3,20,Nb1 H1 O3,6.745082,6.778727337,6.780367563,110.0593226,108.2488191,109.8068904,tri,P1,0.0004983,-3.31076478,2.357306119,4.86525071,FALSE,3.936115639,0,FALSE,239.4759759,,
mp-546285,NbI3O,10,Nb1 I3 O1,3.988999982,7.839230075,11.34018199,82.94292991,79.98795858,75.32581327,mono,C2,0,-5.329622355,-1.405361577,0,TRUE,4.829900367,0.8196,FALSE,336.6660721,,
mp-1247545,NbMoN3,20,Nb1 Mo1 N3,8.492479694,5.39935322,5.845180914,97.99243824,111.7387351,102.0242848,tri,P-1,0.0036303,-9.755764489,-0.563406812,0.189774252,FALSE,6.4837954,0,FALSE,236.505186,,
mp-1220398,NbMoS3,10,Nb1 Mo1 S3,3.28209,6.269142,8.800144414,75.81521402,90,90,mono,P2_1/m,7.70E-05,-7.854546694,-1.182139923,0.065792502,FALSE,5.392449877,0,FALSE,175.5500219,,
mp-1220396,NbMoSe3,10,Nb1 Mo1 Se3,3.400239,6.652061,9.221557923,74.79624438,90,90,mono,P2_1/m,0.002108,-19.50328514,-0.75513818,0.08549858,FALSE,7.024455861,0,FALSE,201.2783053,,
mp-1094112,NbOF3,10,Nb1 O1 F3,5.295129808,5.295129808,5.295129275,71.53531149,71.53531149,71.5353137,trig,R3c,4.00E-07,-7.243783771,-3.087043181,0.20720327,FALSE,4.249599735,4.2198,FALSE,129.6522457,,
mp-1101450,NbOF3,5,Nb1 O1 F3,5.205345133,5.205345133,5.205345133,136.1193696,133.2848487,66.02039947,ortho,Immm,0.0002498,-7.362589064,-3.205848474,0.088397977,FALSE,3.930844925,2.0803,FALSE,70.08291593,,
mp-753785,NbOF3,20,Nb1 O1 F3,9.357491,9.357491,3.860055,90,90,90,tet,P4_2/mnm,0.0019831,-7.417287042,-3.260546452,0.033699999,FALSE,3.260211211,3.2629,FALSE,337.9965979,,
mp-753800,NbOF3,20,Nb1 O1 F3,6.697762,7.812108988,8.753174255,98.79964476,111.0872046,108.5893764,tri,P-1,0,-7.439616344,-3.282875754,0.011370697,FALSE,2.854515673,3.6991,FALSE,386.0340681,,
mp-760762,NbOF3,20,Nb1 O1 F3,4.9777128,5.76975269,9.32762494,90,90,90,ortho,P2_12_12_1,0,-7.450987041,-3.294246451,0,TRUE,4.113390651,3.7013,FALSE,267.8909909,,
mp-762371,NbOF3,20,Nb1 O1 F3,5.668481,5.668481,9.781582,90,90,90,tet,P4_1,0,-7.364015826,-3.207275237,0.086971215,FALSE,3.506029572,3.9131,FALSE,314.2986319,,
mp-22351,NbRu3C,5,Nb1 Ru3 C1,4.065138,4.065138,4.065138,90,90,90,cubic,Pm-3m,0.0110109,-9.460155762,-0.029520131,0.170165435,FALSE,10.08831489,0,FALSE,67.17781589,,
mp-23498,NbSeBr3,20,Nb1 Se1 Br3,7.13577591,6.855151669,12.70778369,81.61717836,90,90,mono,P2/c,0,-4.96293683,-1.261325605,0,TRUE,4.445273498,0.7364,FALSE,614.983064,,
mp-570270,NbSeCl3,20,Nb1 Se1 Cl3,6.96285885,6.46676582,12.09106376,81.15765156,90,90,mono,P2/c,0,-12.74643923,-1.245848913,0,TRUE,3.435255849,0.7559,FALSE,537.9559871,,
mp-541817,NbSeI3,20,Nb1 Se1 I3,8.160350513,8.160350513,13.83196066,85.96045847,85.96045847,126.7884238,mono,C2/c,0,-4.486534378,-0.852683505,0,TRUE,5.038374971,0.627,FALSE,728.4732352,,
mp-28038,NbTeBr3,20,Nb1 Te1 Br3,7.40403755,6.865694437,12.76672338,82.25461189,90,90,mono,P2/c,0,-4.806260205,-1.175170097,0,TRUE,4.753580781,0.5947,FALSE,643.0609971,,
mp-540924,NbTeI3,20,Nb1 Te1 I3,7.68762163,7.368421462,13.67789704,81.66890642,90,90,mono,P2/c,0,-4.333631543,-0.770301787,0,TRUE,5.209114434,0.4578,FALSE,766.6170222,"{'voigt': 7.111, 'reuss': 3.836999999999999, 'vrh': 5.474}","{'voigt': 4.188, 'reuss': -3.095, 'vrh': 0.547}"
mp-1101462,NbTlO3,40,Nb1 Tl1 O3,7.606485877,7.606485877,13.15888899,73.18668832,73.18668832,60.08407658,mono,Cc,0,-7.915106496,-2.451774462,0.001371141,FALSE,7.37468623,0.9465,FALSE,621.9806468,,
mp-757636,NbTlO3,40,Nb1 Tl1 O3,7.611005621,7.624695152,13.18232079,72.97677338,72.6049216,59.96265257,tri,P1,0,-7.916477637,-2.453145603,0,TRUE,7.369601272,0.955,FALSE,622.4098078,,
mp-977408,NbTlO3,5,Nb1 Tl1 O3,4.108551,4.108551,4.108551,90,90,90,cubic,Pm-3m,0.000501,-7.82580354,-2.362471506,0.090674097,FALSE,8.267313088,0.1116,TRUE,69.35312693,"{'voigt': 176.002, 'reuss': 176.002, 'vrh': 176.002}","{'voigt': 95.643, 'reuss': 91.59, 'vrh': 93.616}"
mp-1247532,NbWN3,10,Nb1 W1 N3,3.883672464,5.51368725,6.872204799,90.76915642,90.03014633,110.5723445,mono,C2/m,0.0005549,-21.39146021,-0.693836002,0.103244425,FALSE,7.684837011,0,FALSE,137.7580793,,
mp-571330,Nd3AlC,5,Nd3 Al1 C1,5.100122,5.100122,5.100122,90,90,90,cubic,Pm-3m,1.11E-05,-5.641865188,-0.186128464,0.026321534,FALSE,5.904594406,0,FALSE,132.6605199,"{'voigt': 63.965, 'reuss': 63.965, 'vrh': 63.965}","{'voigt': 43.532, 'reuss': 43.474, 'vrh': 43.503}"
mp-21910,Nd3AlN,5,Nd3 Al1 N1,5.540037,5.540037,5.540037,90,90,90,cubic,Pm-3m,0.0067213,-19.81035965,1.012615539,1.8483892,FALSE,4.626233407,0,FALSE,170.0348708,,
mp-10280,Nd3GaC,5,Nd3 Ga1 C1,5.502933,5.502933,5.502933,90,90,90,cubic,Pm-3m,0.0009683,-4.100074448,1.212166315,1.506786414,FALSE,5.126462467,0,FALSE,166.6413117,,
mp-636273,Nd3GaN,5,Nd3 Ga1 N1,5.505059,5.505059,5.505059,90,90,90,cubic,Pm-3m,0.0006871,-20.9716487,0.79346201,1.733940115,FALSE,5.140391999,0,FALSE,166.8345267,"{'voigt': 38.83, 'reuss': 38.83, 'vrh': 38.83}","{'voigt': 18.228, 'reuss': 3.206, 'vrh': 10.717}"
mp-20385,Nd3InC,5,Nd3 In1 C1,5.13119013,5.13119536,5.13119536,90,90,90,cubic,Pm-3m,5.70E-06,-5.574446192,-0.315989885,0,TRUE,6.877592474,0,FALSE,135.0999558,,
mp-606671,Nd3InC,5,Nd3 In1 C1,6.150728,6.150728,6.150728,90,90,90,cubic,Pm-3m,0.0036514,-3.572369758,1.686086549,2.002076434,FALSE,3.993117408,0,FALSE,232.6909891,,