mp_id,composition,a_edge (angstrom),b_edge (angstrom),c_edge (angstrom),alpha_ang (deg),beta_ang (deg),gamma_ang (deg),crystal_system,space_group,formation_energy (eV/atom),energy_above_hull (eV/atom),band_gap (eV),A_site,B_site,X_site
mp-23348,K1 Fe1 Br3,4.066261,9.526064,15.077003,90.0,90.0,90.0,ortho,Pnma,-1.270768166,0.051609727,0.0763,K,Fe,Br
mp-23538,K1 Fe1 Cl3,3.890847,8.862346,14.296414,90.0,90.0,90.0,ortho,Pnma,-1.574581814,0.031317028,0.0477,K,Fe,Cl
mp-556891,K1 Fe1 F3,4.16531,4.16531,4.16531,90.0,90.0,90.0,cubic,Pm-3m,-2.505277545,0.220190679,0.0,K,Fe,F
mp-1247740,K1 Fe1 I3,4.061135,9.790628,16.301125,90.0,90.0,90.0,ortho,Pnma,-0.736542884,0.146414656,0.1892,K,Fe,I
mp-1097023,K1 Fe1 O3,5.089854,5.611265,13.329225,90.0,90.0,90.0,ortho,Pnma,-1.269862373,0.162004669,0.5258,K,Fe,O
mp-1184987,K1 Gd1 O3,4.46096,4.46096,4.46096,90.0,90.0,90.0,cubic,Pm-3m,-2.31694479,0.18361395,0.0,K,Gd,O
mp-998412,K1 Ge1 Br3,5.605409015,5.605409015,5.59204652,89.0316345,89.0316345,89.23977012,mono,Cm,-1.361960853,0.025231168,0.9083,K,Ge,Br
mp-998612,K1 Ge1 Br3,5.981290952,7.42392971,8.486145859,90.0,114.5480546,90.0,mono,P2_1/m,-1.387192021,0.0,2.9026,K,Ge,Br
mp-998231,K1 Ge1 Cl3,5.356161585,5.356161585,5.335108327,89.08382834,89.08382834,89.15415082,mono,Cm,-1.627457628,0.028222893,1.4859,K,Ge,Cl
mp-998613,K1 Ge1 Cl3,7.531836961,7.53183688,7.531836492,61.68388527,61.68387771,61.68388726,trig,R3c,-1.655680521,0.0,2.8924,K,Ge,Cl
mp-998227,K1 Hf1 O3,4.177954,4.177954,4.177954,90.0,90.0,90.0,cubic,Pm-3m,-2.943229516,0.040906272,0.0,K,Hf,O
mp-7483,K1 Hg1 F3,6.40393385,6.41619267,9.04877947,90.0,90.0,90.0,cubic,Pm-3m,-2.199979577,0.0,0.6082,K,Hg,F
mp-725939,K1 Hg1 I3,8.495221,9.296003,12.546216,90.0,90.0,90.0,ortho,Pna2_1,-0.991852945,0.014913208,1.7116,K,Hg,I
mp-1184944,K1 Ho1 O3,4.448354,4.448354,4.448354,90.0,90.0,90.0,cubic,Pm-3m,-2.306167295,0.260054367,0.0,K,Ho,O
mp-1080058,K1 I1 O3,6.287628716,6.287629181,6.287629508,59.93186773,59.93186075,59.93187505,trig,R3c,-1.365218097,0.0014049,2.8548,K,I,O
mp-1180816,K1 I1 O3,7.851112932,7.851112932,9.076980192,54.80104569,54.80104569,70.47362089,mono,C2,-1.356217607,0.01040539,2.813,K,I,O
mp-1200675,K1 I1 O3,8.896428484,8.896428473,8.896427956,89.66984356,89.66985025,89.66984473,trig,R3,-1.36555921,0.001063787,2.8533,K,I,O
mp-1223446,K1 I1 O3,4.522157015,4.522157015,4.522156919,88.4851769,88.4851769,88.4851775,trig,R3,-1.360459949,0.006163048,2.5295,K,I,O
mp-23487,K1 I1 O3,7.67246903,7.690671943,7.680980049,109.5181294,109.0969225,109.3830158,tri,P1,-1.366622997,0.0,2.7868,K,I,O
mp-552729,K1 I1 O3,4.438137533,4.43813628,4.43886818,88.66743015,88.6674449,88.66447294,trig,R3m,-1.359852849,0.006770148,2.5682,K,I,O
mp-558843,K1 I1 O3,4.200263,4.200263,4.200263,90.0,90.0,90.0,cubic,Pm-3m,-1.168379829,0.198243168,0.0,K,I,O
mp-1110931,K1 In1 Br3,8.070099526,8.070099526,8.070099526,60.0,60.0,60.0,cubic,Fm-3m,-1.421698091,0.09779008,0.8797,K,In,Br
mp-28529,K1 In1 Br3,8.60409982,8.604099958,10.87592584,90.0,90.0,119.9999986,trig,P-3,-1.519488171,0.0,2.3376,K,In,Br
mp-1112170,K1 In1 Cl3,7.809809136,7.809809136,7.809809136,60.0,60.0,60.0,cubic,Fm-3m,-1.722804377,0.053826871,1.5971,K,In,Cl
mp-1112296,K1 In1 F3,6.600529261,6.600529261,6.600529261,60.0,60.0,60.0,cubic,Fm-3m,-2.700292204,0.075186752,2.3697,K,In,F
mp-1112169,K1 In1 I3,8.720254372,8.720254372,8.720254372,60.0,60.0,60.0,cubic,Fm-3m,-1.049556662,0.076682345,0.0,K,In,I
mp-974734,K1 In1 O3,4.308433,4.308433,4.308433,90.0,90.0,90.0,cubic,Pm-3m,-1.274736738,0.291637047,0.0,K,In,O
mp-639811,K1 Ir1 O3,9.48725516,9.48725516,9.48725516,90.0,90.0,90.0,cubic,Pn-3,-1.509878324,0.0,0.0,K,Ir,O
mp-1184939,K1 Li1 O3,4.048757,4.048757,4.048757,90.0,90.0,90.0,cubic,Pm-3m,-0.749774829,0.498409371,0.0,K,Li,O
mp-1184941,K1 Lu1 O3,4.375635,4.375635,4.375635,90.0,90.0,90.0,cubic,Pm-3m,-2.379096528,0.235662399,0.0,K,Lu,O
mp-27865,K1 Mg1 Cl3,6.9558722,6.99846994,9.91599163,90.0,90.0,90.0,ortho,Pnma,-2.250501802,0.002808604,4.4851,K,Mg,Cl
mp-3448,K1 Mg1 F3,3.97846823,3.97846823,3.97846823,90.0,90.0,90.0,cubic,Pm-3m,-3.537649096,0.0,6.9537,K,Mg,F
mp-1017580,K1 Mg1 H3,4.435872,4.435872,4.435872,90.0,90.0,90.0,cubic,Pm-3m,0.702992729,1.048648856,0.0,K,Mg,H
mp-23737,K1 Mg1 H3,3.988098,3.988098,3.988098,90.0,90.0,90.0,cubic,Pm-3m,-0.345656127,0.0,2.458,K,Mg,H
mp-1184960,K1 Mg1 O3,4.127702,4.127702,4.127702,90.0,90.0,90.0,cubic,Pm-3m,-1.439255093,0.36418468,0.0,K,Mg,O
mp-29636,K1 Mn1 Br3,4.06261933,9.33159817,15.20534512,90.0,90.0,90.0,ortho,Pnma,-1.507498235,0.001322063,1.7869,K,Mn,Br
mp-23049,K1 Mn1 Cl3,6.96865944,7.09603931,9.99008665,90.0,90.0,90.0,ortho,Pnma,-1.841129159,0.011803123,0.0,K,Mn,Cl
mp-567530,K1 Mn1 Cl3,3.86265975,8.80346841,14.36243149,90.0,90.0,90.0,ortho,Pnma,-1.852932282,0.0,0.0,K,Mn,Cl
mp-1180746,K1 Mn1 F3,5.912211119,5.912211119,5.912211119,120.0406516,120.0406516,89.92960383,tet,I4/mcm,-3.01592277,0.001604434,1.7405,K,Mn,F
mp-1180807,K1 Mn1 F3,6.011605,6.022303,8.497305,90.0,90.0,90.0,ortho,Pnma,-3.016323329,0.001203875,3.3458,K,Mn,F
mp-1205353,K1 Mn1 F3,5.897455214,5.897455214,5.897455214,120.0521214,119.6335875,90.27278058,ortho,Imma,-3.017527204,0.0,2.4058,K,Mn,F
mp-555123,K1 Mn1 F3,4.182679,4.182679,4.182679,90.0,90.0,90.0,cubic,Pm-3m,-3.015815794,0.00171141,2.6564,K,Mn,F
mp-555359,K1 Mn1 F3,5.875932491,5.87593281,5.914206425,119.7864345,119.7864346,89.99948856,tet,I4/mcm,-3.01728263,0.000244574,2.0716,K,Mn,F
mp-558046,K1 Mn1 F3,5.89376972,5.92009253,8.33661285,90.0,90.0,90.0,ortho,Pnma,-3.017154201,0.000373002,2.7828,K,Mn,F
mp-560382,K1 Mn1 F3,5.90810512,5.90810512,8.37649173,90.0,90.0,90.0,tet,P4/mbm,-3.016602628,0.000924576,2.6774,K,Mn,F
mp-644332,K1 Mn1 F3,8.540434,6.01211,6.044953728,89.97188741,90.0,90.0,mono,P2_1/m,-3.015492925,0.002034278,2.6892,K,Mn,F
mp-1184948,K1 Mn1 O3,3.956178,3.956178,3.956178,90.0,90.0,90.0,cubic,Pm-3m,-1.477517156,0.27993576,0.0,K,Mn,O
mp-1040469,K1 Mo1 O3,4.00482,4.00482,4.00482,90.0,90.0,90.0,cubic,Pm-3m,-2.042556052,0.106874973,0.0,K,Mo,O
mp-1020193,K1 N1 O3,5.32398474,4.497793102,13.71594619,73.7251283,90.0,90.0,mono,P2_1/c,-1.408985992,0.013152605,2.953,K,N,O
mp-1105365,K1 N1 O3,4.010746043,5.634771,15.24904291,90.0,95.63855787,90.0,mono,P2_1/c,-1.375772838,0.046365759,3.1418,K,N,O
mp-1190109,K1 N1 O3,9.512412,5.163495,7.166738,90.0,90.0,90.0,ortho,Pnma,-1.378527594,0.043611003,2.8553,K,N,O
mp-36903,K1 N1 O3,5.456724,4.64109,7.040071939,75.61712109,90.0,90.0,mono,P2_1/m,-1.414639042,0.007499555,2.9765,K,N,O
mp-5158,K1 N1 O3,5.4109266,6.18542073,9.15028024,90.0,90.0,90.0,ortho,Pnma,-1.422138597,0.0,2.9384,K,N,O
mp-672644,K1 N1 O3,5.602235,6.405085,9.268196,90.0,90.0,90.0,ortho,Pnma,-1.377848701,0.044289896,3.2301,K,N,O
mp-675625,K1 N1 O3,4.625934,5.572943172,7.245968656,89.90735698,73.47842734,89.83477281,tri,P1,-1.410374209,0.011764388,3.0629,K,N,O
mp-676851,K1 N1 O3,4.566025342,4.566025342,4.566025713,74.35728749,74.35728749,74.35729053,trig,R32,-1.392764183,0.029374414,3.0153,K,N,O
mp-6920,K1 N1 O3,4.281410211,4.281409785,4.281409728,78.95475928,78.95478238,78.95476202,trig,R3m,-1.419497643,0.002640954,2.9813,K,N,O
mp-9475,K1 N1 O3,5.56306744,6.71251908,7.42782769,90.0,90.0,90.0,ortho,Pnma,-1.421012523,0.001126074,3.2872,K,N,O
mp-973968,K1 Na1 O3,4.439773,4.439773,4.439773,90.0,90.0,90.0,cubic,Pm-3m,-0.496376839,0.610977825,0.0,K,Na,O
mp-4342,K1 Nb1 O3,4.01297268,4.01297268,4.11029183,90.0,90.0,90.0,tet,P4mm,-2.850937516,0.001190164,1.476,K,Nb,O
mp-5246,K1 Nb1 O3,4.00636436,4.071075482,4.071076844,90.20366844,90.0,90.0,ortho,Amm2,-2.85177428,0.0003534,2.0585,K,Nb,O
mp-7375,K1 Nb1 O3,4.049923855,4.049923873,4.049924741,89.8368711,89.83687925,89.83686206,trig,R3m,-2.85212768,0.0,2.2934,K,Nb,O
mp-935811,K1 Nb1 O3,4.02918278,4.02918278,4.02918278,90.0,90.0,90.0,cubic,Pm-3m,-2.844397452,0.007730228,1.4121,K,Nb,O
mp-27366,K1 Ni1 Cl3,11.80821896,11.80821937,5.92176056,89.99999449,90.00004025,119.9995508,hex_,P6_3cm,-1.469011673,0.0,0.7023,K,Ni,Cl
mp-560976,K1 Ni1 F3,4.00809624,4.00805847,4.00805988,90.0,90.0,90.0,cubic,Pm-3m,-2.637536305,0.0,0.0,K,Ni,F
mp-1185015,K1 Np1 O3,4.27003215,4.29310949,4.29310845,90.0,90.0,90.0,cubic,Pm-3m,-3.11304054,0.0,0.0,K,Np,O
mp-1185009,K1 Os1 O3,3.931159,3.931159,3.931159,90.0,90.0,90.0,cubic,Pm-3m,-1.62517957,0.038625092,0.0,K,Os,O
mp-1196581,K1 P1 O3,16.0806313,16.0806313,16.0806313,90.0,90.0,90.0,cubic,Pa-3,-2.675777608,0.009890445,5.056,K,P,O
mp-1223439,K1 P1 O3,8.684697749,8.684697749,4.192009005,77.00847631,77.00847631,41.10641199,mono,C2/m,-2.439726506,0.245941546,3.3136,K,P,O
mp-13981,K1 P1 O3,4.4452682,5.81675015,12.42586076,90.0,90.0,90.0,ortho,Pnma,-2.67217467,0.013493382,4.8212,K,P,O
mp-5039,K1 P1 O3,4.55257852,10.23201105,14.02715163,79.0634855,90.0,90.0,mono,P2_1/c,-2.685668052,0.0,5.1269,K,P,O
mp-557880,K1 P1 O3,12.183133,7.49784,12.14350184,65.05057428,90.0,90.0,mono,P2_1/c,-2.682037335,0.003630717,5.243,K,P,O
mp-557985,K1 P1 O3,4.55149133,11.26279304,14.0652371,62.92127425,90.0,90.0,mono,P2_1/c,-2.685239081,0.000428971,5.216,K,P,O
mp-675976,K1 P1 O3,5.137589,6.040312003,6.434108476,64.01160023,81.86856944,83.89594705,tri,P-1,-1.192805832,1.49286222,0.7652,K,P,O
mp-8267,K1 P1 S3,6.907587079,7.096471062,7.096471552,72.07381071,60.87663973,60.87663977,ortho,Immm,-0.956720066,0.0,1.7149,K,P,S
mp-569702,K1 P1 Se3,14.9511113,14.9511113,19.275013,90.0,90.0,119.9999969,trig,P3_1,-0.799751222,0.0,1.4182,K,P,Se
mp-571452,K1 P1 Se3,7.30874671,7.308746906,18.97090961,90.0,90.0,120.0000077,trig,P3_121,-0.797787624,0.001963598,1.315,K,P,Se
mp-1206970,K1 Pa1 O3,4.35600548,4.35600548,4.35600548,90.0,90.0,90.0,cubic,Pm-3m,-3.552497714,0.0,3.0477,K,Pa,O
mp-1211504,K1 Pb1 I3,4.75272664,10.60788672,17.07067393,90.0,90.0,90.0,ortho,Pnma,-1.206837612,0.014278024,2.4115,K,Pb,I
mp-1184935,K1 Pb1 O3,4.360784,4.360784,4.360784,90.0,90.0,90.0,cubic,Pm-3m,-1.200046564,0.151146497,0.0,K,Pb,O
mp-9061,K1 Pd1 F3,4.309256,4.309256,4.309256,90.0,90.0,90.0,cubic,Pm-3m,-2.110543693,0.034555294,0.0,K,Pd,F
mp-972985,K1 Pd1 O3,4.070076,4.070076,4.070076,90.0,90.0,90.0,cubic,Pm-3m,-0.8254632,0.166205129,0.0,K,Pd,O
mp-974842,K1 Pt1 O3,4.046411,4.046411,4.046411,90.0,90.0,90.0,cubic,Pm-3m,-0.950692176,0.12546218,0.0,K,Pt,O
mp-863708,K1 Pu1 O3,4.24710281,4.24713127,4.24712415,90.0,90.0,90.0,cubic,Pm-3m,-2.921963576,1.74e-05,0.0,K,Pu,O
mp-1184957,K1 Rb1 O3,5.002601,5.002601,5.002601,90.0,90.0,90.0,cubic,Pm-3m,-0.33106965,0.766270069,0.0,K,Rb,O
mp-973471,K1 Re1 O3,3.939058,3.939058,3.939058,90.0,90.0,90.0,cubic,Pm-3m,-2.081842621,0.037437421,0.0,K,Re,O
mp-975134,K1 Rh1 O3,3.991577,3.991577,3.991577,90.0,90.0,90.0,cubic,Pm-3m,-1.184232334,0.061124044,0.0,K,Rh,O
mp-973958,K1 Ru1 O3,3.939277,3.939277,3.939277,90.0,90.0,90.0,cubic,Pm-3m,-1.532978398,0.104107756,0.0,K,Ru,O
mp-541581,K1 S1 O3,9.711987668,9.711994323,6.27590517,90.0002906,89.9990666,120.0008346,trig,P321,-2.073629839,0.012870134,4.9772,K,S,O
mp-558546,K1 S1 O3,9.872281134,9.872482007,6.29887238,90.00021631,90.00008617,120.001098,trig,P321,-2.075698374,0.010801598,4.995,K,S,O
mp-1180714,K1 Sb1 O3,3.745254,6.093515106,8.342319224,88.15577793,98.90750502,103.2967773,tri,P-1,-1.233729019,0.815398154,0.0,K,Sb,O
mp-14607,K1 Sb1 O3,9.59970638,9.59970638,9.59970638,90.0,90.0,90.0,cubic,Pn-3,-2.030736123,0.018391051,2.0039,K,Sb,O
mp-16293,K1 Sb1 O3,7.515630088,7.515630088,7.515630088,60.0,60.0,60.0,cubic,Fd-3m,-2.004404203,0.04472297,1.1213,K,Sb,O
mp-547792,K1 Sb1 O3,6.84028095,6.840261049,6.840306936,46.47726357,46.47717131,46.47728063,trig,R-3,-2.049127173,0.0,2.6808,K,Sb,O
mp-635067,K1 Sb1 O3,3.847399,5.905069882,7.4086622,79.85517068,82.26845813,78.24766876,tri,P-1,-1.136569009,0.912558164,0.0,K,Sb,O
mp-695836,K1 Sb1 O3,4.990369,6.233788571,6.825866397,72.28576422,69.06421636,67.33299992,tri,P-1,-1.284521972,0.764605201,0.2784,K,Sb,O
mp-973960,K1 Sc1 O3,4.210657,4.210657,4.210657,90.0,90.0,90.0,cubic,Pm-3m,-2.336502925,0.203321557,0.0,K,Sc,O
mp-28695,K1 Si1 H3,5.30126752,6.87685656,8.77103648,90.0,90.0,90.0,ortho,Pnma,-0.188028735,0.0,2.5733,K,Si,H
mp-1198795,K1 Si1 O3,7.761756279,7.761756279,11.261609,90.0,90.0,98.93432999,ortho,Cmce,-2.460511223,0.150114179,0.2132,K,Si,O
mp-1199261,K1 Si1 O3,11.007972,7.83872,10.36872265,48.63116328,90.0,90.0,mono,P2_1/c,-2.462709077,0.147916326,0.0,K,Si,O
mp-974061,K1 Si1 O3,3.683079,3.683079,3.683079,90.0,90.0,90.0,cubic,Pm-3m,-2.14048463,0.470140772,0.0,K,Si,O
mp-1097014,K1 Sn1 Br3,4.47666619,8.95656243,16.58642631,90.0,90.0,90.0,ortho,Pnma,-1.499010418,0.012274417,2.2679,K,Sn,Br
mp-28774,K1 Sn1 F3,7.978592781,9.891077845,10.21951682,80.3808471,72.36743442,74.20170479,tri,P-1,-2.791165812,0.0,3.5114,K,Sn,F
mp-1097015,K1 Sn1 I3,4.70824602,10.44878157,16.99764006,90.0,90.0,90.0,ortho,Pnma,-1.124100622,0.0,1.9381,K,Sn,I
mp-1079672,K1 Sn1 N3,6.78198809,6.78198809,7.831292,90.0,90.0,120.0000009,trig,P-3,1.699245805,1.824210541,0.0,K,Sn,N
mp-1205548,K1 Sr1 I3,8.112890009,8.112890009,12.05344229,90.0,90.0,145.9752959,ortho,Cmcm,-1.847555648,0.0,3.9993,K,Sr,I
mp-1184959,K1 Sr1 O3,4.84673,4.84673,4.84673,90.0,90.0,90.0,cubic,Pm-3m,-1.329765242,0.506905779,0.0,K,Sr,O
mp-3614,K1 Ta1 O3,3.99488137,3.99488137,3.99488137,90.0,90.0,90.0,cubic,Pm-3m,-3.071587858,0.0,2.0995,K,Ta,O
mp-568318,K1 Ta1 Te3,14.268809,7.986365,31.32861614,89.92458311,90.0,90.0,mono,P2_1/c,-0.819255355,0.0,0.4922,K,Ta,Te
mp-981313,K1 Tb1 O3,4.494844,4.494844,4.494844,90.0,90.0,90.0,cubic,Pm-3m,-2.272926432,0.269213928,0.0,K,Tb,O
mp-28408,K1 Tc1 Cl3,8.329953578,8.329953578,9.060211254,86.36834409,86.36834409,118.2901238,mono,Cc,-1.359139228,0.050484929,1.6971,K,Tc,Cl
mp-973267,K1 Tc1 O3,3.87414195,3.87414195,3.87414195,90.0,90.0,90.0,cubic,Pm-3m,-1.982492657,0.0,0.0,K,Tc,O
mp-1184940,K1 Te1 O3,4.114391,4.114391,4.114391,90.0,90.0,90.0,cubic,Pm-3m,-1.638802142,0.084273743,0.0,K,Te,O
mp-567718,K1 Ti1 Br3,13.39981595,13.39981595,5.928911,90.0,90.0,119.9999997,hex_,P6_3,-1.664499826,0.023100073,0.0,K,Ti,Br
mp-568270,K1 Ti1 Cl3,12.63125637,12.63125637,5.633525,90.0,90.0,120.0000019,hex_,P6_3,-2.008215136,0.011912576,0.0,K,Ti,Cl
mp-640578,K1 Ti1 I3,14.05807965,14.05807965,6.965316,90.0,90.0,119.9999983,hex_,P6_3,-1.198004552,0.050800693,0.0,K,Ti,I
mp-1180658,K1 Ti1 O3,5.798654284,5.798654284,9.652997,90.0,90.0,120.0000032,hex_,P6_3/mmc,-2.652540658,0.0993671,0.0,K,Ti,O
mp-760376,K1 Ti1 O3,3.69172,3.69172,5.766897,90.0,90.0,90.0,tet,P4mm,-2.662460197,0.089447561,0.0,K,Ti,O
mp-1111155,K1 Tl1 Br3,8.305649382,8.305649382,8.305649382,60.0,60.0,60.0,cubic,Fm-3m,-1.342039624,0.077235673,0.9246,K,Tl,Br
mp-1111296,K1 Tl1 Cl3,7.932070727,7.932070727,7.932070727,60.0,60.0,60.0,cubic,Fm-3m,-1.582051127,0.059074321,1.097,K,Tl,Cl
mp-1111295,K1 Tl1 F3,6.776574808,6.776574808,6.776574808,60.0,60.0,60.0,cubic,Fm-3m,-2.440160439,0.054284187,1.9647,K,Tl,F
mp-1110822,K1 Tl1 I3,8.872874885,8.872874885,8.872874885,60.0,60.0,60.0,cubic,Fm-3m,-0.973210454,0.117895556,0.0,K,Tl,I
mp-984454,K1 Tl1 O3,4.410647,4.410647,4.410647,90.0,90.0,90.0,cubic,Pm-3m,-0.794923277,0.333117669,0.0,K,Tl,O
mp-1211295,K1 Tm1 Br3,7.603023,7.98206,10.939478,90.0,90.0,90.0,ortho,Pnma,-1.818286347,0.178257686,0.0,K,Tm,Br
mp-570303,K1 Tm1 I3,8.11373546,8.11373546,11.538987,90.0,90.0,149.3795755,ortho,Cmcm,-1.403376805,0.128583351,0.0,K,Tm,I
mp-1184949,K1 Tm1 O3,4.412421,4.412421,4.412421,90.0,90.0,90.0,cubic,Pm-3m,-2.350256552,0.247455241,0.0,K,Tm,O
mp-4126,K1 U1 O3,4.29886276,4.29886276,4.29886276,90.0,90.0,90.0,cubic,Pm-3m,-3.33510989,0.0,0.4454,K,U,O
mp-1205604,K1 V1 Cl3,6.914956127,6.914956434,6.16009058,90.0,90.0,119.9994212,hex_,P6_3/mmc,-1.835891939,0.0,0.3342,K,V,Cl
mp-557257,K1 V1 F3,4.12938738,4.12940323,4.1292904,90.0,90.0,90.0,cubic,Pm-3m,-3.040495367,0.0,2.0759,K,V,F
mp-1076633,K1 V1 O3,3.8531,3.8531,3.8531,90.0,90.0,90.0,cubic,Pm-3m,-2.189759956,0.216911291,0.2186,K,V,O
mp-18815,K1 V1 O3,5.1974608,5.65515664,10.65824401,90.0,90.0,90.0,ortho,Pbcm,-2.406671247,0.0,3.046,K,V,O
mp-1040472,K1 W1 O3,4.017149,4.017149,4.017149,90.0,90.0,90.0,cubic,Pm-3m,-2.133688594,0.067683725,0.0,K,W,O
mp-1184945,K1 Y1 O3,4.497543,4.497543,4.497543,90.0,90.0,90.0,cubic,Pm-3m,-2.258839532,0.271296048,0.0,K,Y,O
mp-5878,K1 Zn1 F3,4.04741679,4.04741679,4.04741679,90.0,90.0,90.0,cubic,Pm-3m,-2.813805775,0.0,3.6954,K,Zn,F
mp-1184946,K1 Zn1 O3,4.088547,4.088547,4.088547,90.0,90.0,90.0,cubic,Pm-3m,-0.938129754,0.366345996,0.0,K,Zn,O
mp-1184950,K1 Zr1 O3,4.238285,4.238285,4.238285,90.0,90.0,90.0,cubic,Pm-3m,-2.795012398,0.066313655,0.0,K,Zr,O
mp-10600,La3 Al1 C1,5.205131,5.205131,5.205131,90.0,90.0,90.0,cubic,Pm-3m,-0.185289397,0.034530171,0.0,Al,C,La
mp-4505,La3 Al1 N1,5.09751599,5.09752329,5.09751495,90.0,90.0,90.0,cubic,Pm-3m,-0.901059497,0.0,0.0,Al,N,La
mp-1206996,La3 Al1 O1,5.03101297,5.03100776,5.0310088,90.0,90.0,90.0,cubic,Pm-3m,-1.473911112,0.0,0.0,Al,O,La
mp-20590,La3 In1 B1,5.328949,5.328949,5.328949,90.0,90.0,90.0,cubic,Pm-3m,-0.258075917,0.202741914,0.0,In,B,La
mp-29056,La3 In1 C1,5.24935926,5.24935926,5.24935926,90.0,90.0,90.0,cubic,Pm-3m,-0.318574596,0.0,0.0,In,C,La
mp-1224015,La3 In1 Ge1,12.38399439,11.95846731,11.94275084,62.40709727,58.85955349,58.73628554,ortho,Fmm2,-0.743515691,0.0,0.0,In,Ge,La
mp-20999,La3 In1 N1,5.13785256,5.13783273,5.13784525,90.0,90.0,90.0,cubic,Pm-3m,-1.058575107,0.0,0.0,In,N,La
mp-10611,La3 Pb1 C1,5.23916418,5.23915898,5.23918083,90.0,90.0,90.0,cubic,Pm-3m,-0.428482043,0.0,0.0,Pb,C,La
mp-1206443,La3 Sn1 C1,5.22029957,5.22029957,5.22029957,90.0,90.0,90.0,cubic,Pm-3m,-0.490278864,0.0,0.0,Sn,C,La
mp-1206994,La3 Sn1 N1,5.10650318,5.10651462,5.10650942,90.0,90.0,90.0,cubic,Pm-3m,-1.172514945,0.0,0.0,Sn,N,La
mp-571167,Nd1 Ni1 Sb3,6.2375653,12.72674041,18.34531071,90.0,90.0,90.0,ortho,Pbcm,-0.733633897,0.0,0.0,Nd,Ni,Sb
mp-1186312,Nd1 Np1 O3,4.495194,4.495194,4.495194,90.0,90.0,90.0,cubic,Pm-3m,-2.474213572,1.037101979,0.0,Nd,Np,O
mp-1186326,Nd1 Re1 O3,4.000753,4.000753,4.000753,90.0,90.0,90.0,cubic,Pm-3m,-2.209266685,0.607413395,0.0,Nd,Re,O
mp-16287,Nd1 Rh3 C1,4.20689872,4.20689872,4.20689872,90.0,90.0,90.0,cubic,Pm-3m,-0.386097769,0.016713652,0.0,Nd,C,Rh
mp-4582,Nd1 Rh1 O3,5.36174282,5.83175504,7.7935672,90.0,90.0,90.0,ortho,Pnma,-2.495162424,0.0,0.6487,Nd,Rh,O
mp-1206341,Nd1 Sb1 O3,4.281575,4.281575,4.281575,90.0,90.0,90.0,cubic,Pm-3m,-2.075499448,0.768686312,0.0,Nd,Sb,O
mp-31117,Nd1 Sc1 O3,5.58038856,5.80995328,8.02978969,90.0,90.0,90.0,ortho,Pnma,-3.896463978,0.0,4.3025,Nd,Sc,O
mp-1105614,Nd1 Sc1 S3,6.50541219,7.15932821,9.582129,90.0,90.0,90.0,ortho,Pnma,-2.296256424,0.0,1.8593,Nd,Sc,S
mp-1070369,Nd1 Si3 Ir1,5.757777267,5.757777267,5.757777267,136.7249867,136.7249867,62.86146372,tet,I4mm,-0.86328227,0.0,0.0,Nd,Ir,Si
mp-1068775,Nd1 Si3 Os1,5.805284466,5.805284466,5.805284466,137.1339609,137.1339609,62.23200106,tet,I4mm,-0.661911827,0.0,0.0,Nd,Os,Si
mp-1070321,Nd1 Si3 Rh1,5.744010682,5.744010682,5.744010682,136.8124903,136.8124903,62.72668253,tet,I4mm,-0.798266127,0.0,0.0,Nd,Rh,Si
mp-1069041,Nd1 Si3 Ru1,5.788725414,5.788725414,5.788725414,137.2778455,137.2778455,62.01083167,tet,I4mm,-0.712026258,0.005464831,0.0,Nd,Ru,Si
mp-1206778,Nd1 Si1 Pt3,4.09760065,4.09760065,5.45224093,90.0,90.0,90.0,tet,P4mm,-1.055389293,0.0,0.0,Nd,Si,Pt
mp-1198161,Nd1 Sn3 Ru1,9.75674486,9.75662974,9.75657992,90.0001905,90.00017118,89.99977737,cubic,Pm-3n,-0.477315371,0.0,0.0,Nd,Ru,Sn
mp-1186324,Nd1 Ta1 O3,4.053073,4.053073,4.053073,90.0,90.0,90.0,cubic,Pm-3m,-2.974960112,0.437858951,0.0,Nd,Ta,O
mp-3119,Nd1 Ti1 O3,5.505604,5.735775,7.854856,90.0,90.0,90.0,ortho,Pnma,-3.566930537,0.042002469,0.0,Nd,Ti,O
mp-1197152,Nd1 Tm1 S3,3.93607442,10.98356558,21.41125346,78.6177889,90.0,90.0,mono,P2_1/m,-2.387681536,0.001888056,0.639,Nd,Tm,S
mp-977446,Nd1 V1 Ge3,6.21831062,6.218447404,5.62042085,90.0,90.0,119.9992817,hex_,P6_3/mmc,-0.5023238,0.017606004,0.0,Nd,V,Ge
mp-19253,Nd1 V1 O3,3.923378,3.923378,3.923378,90.0,90.0,90.0,cubic,Pm-3m,-2.998050831,0.222997488,0.0,Nd,V,O
mp-541129,Nd1 V1 O3,5.44723174,5.67955965,7.71246632,90.0,90.0,90.0,ortho,Pnma,-3.221048318,0.0,1.0341,Nd,V,O
mp-1173468,Nd1 V1 Sb3,10.007844,6.546422,8.852587,90.0,90.0,90.0,ortho,Pbcm,-0.068350599,0.574941309,0.0,Nd,V,Sb