mp_id,composition,a_edge (angstrom),b_edge (angstrom),c_edge (angstrom),alpha_ang (deg),beta_ang (deg),gamma_ang (deg),crystal_system,space_group,formation_energy (eV/atom),energy_above_hull (eV/atom),band_gap (eV),A_site,B_site,X_site
mp-10699,Lu1 Rh3 C1,4.11552588,4.11552588,4.11552588,90.0,90.0,90.0,cubic,Pm-3m,-0.552041181,0.0,0.0,Lu,C,Rh
mp-1205366,Lu1 Rh1 O3,5.15042715,5.66071551,7.48237152,90.0,90.0,90.0,ortho,Pnma,-2.612046789,0.0,1.0887,Lu,Rh,O
mp-973681,Lu1 Rh1 O3,3.924034,3.924034,3.924034,90.0,90.0,90.0,cubic,Pm-3m,-1.8884894,0.723557389,0.0,Lu,Rh,O
mp-1207093,Lu1 Ru3 C1,4.1024656,4.10244827,4.10244827,90.0,90.0,90.0,cubic,Pm-3m,-0.279639095,0.0,0.0,Lu,C,Ru
mp-772180,Lu1 Sc1 O3,6.109015092,6.109015092,12.114255,90.0,90.0,119.9999902,hex_,P6_3cm,-4.006214217,0.040043889,3.0848,Lu,Sc,O
mp-776593,Lu1 Sc1 O3,5.379162,5.689607,7.942178,90.0,90.0,90.0,ortho,Pnma,-3.982798759,0.063459346,4.6063,Lu,Sc,O
mp-768293,Lu1 Se1 O3,12.428271,5.857039,8.658127517,74.18797173,90.0,90.0,mono,P2_1/c,-2.543677874,0.03757852,1.705,Lu,Se,O
mp-973655,Lu1 Si1 O3,3.680432,3.680432,3.680432,90.0,90.0,90.0,cubic,Pm-3m,-2.71563901,0.878017377,0.0,Lu,Si,O
mp-754231,Lu1 Ti1 O3,5.264573,5.647997,7.620271,90.0,90.0,90.0,ortho,Pnma,-3.654343693,0.061941423,0.0,Lu,Ti,O
mp-754597,Lu1 Tl1 O3,5.6952,5.80756,8.425783,90.0,90.0,90.0,ortho,Pnma,-2.528349048,0.083761392,1.0776,Lu,Tl,O
mp-973536,Lu1 U1 O3,4.192118,4.192118,4.192118,90.0,90.0,90.0,cubic,Pm-3m,-3.04919804,0.704651925,0.0,Lu,U,O
mp-755583,Lu1 V1 O3,5.241979,5.658672,7.593422,90.0,90.0,90.0,ortho,Pnma,-3.323391882,0.00577375,1.5725,Lu,V,O
mp-973486,Lu1 V1 O3,3.853611,3.853611,3.853611,90.0,90.0,90.0,cubic,Pm-3m,-2.765232774,0.563932858,0.0,Lu,V,O
mp-1206514,Mg3 As1 N1,4.20628578,4.20628578,4.20628578,90.0,90.0,90.0,cubic,Pm-3m,-0.896367267,0.0,2.2818,As,N,Mg
mp-2647001,Mg3 Bi1 Sb1,4.66434,4.664340925,7.360345,90.0,90.0,119.9999934,trig,P3m1,-0.296550967,0.006847672,0.1607,Bi,Sb,Mg
mp-1080847,Mg3 Sb1 N1,4.34531858,4.34531858,4.34531858,90.0,90.0,90.0,cubic,Pm-3m,-0.705936314,0.0,1.6234,Sb,N,Mg
mp-10185,Mg3 Zn1 C1,4.406931,4.406931,4.406931,90.0,90.0,90.0,cubic,Pm-3m,0.192792812,0.235294405,0.0,Zn,C,Mg
mp-1210575,Mg1 Ag1 F3,4.399469,4.399469,4.399469,90.0,90.0,90.0,cubic,Pm-3m,-1.587277785,1.195872592,0.0,Mg,Ag,F
mp-998358,Mg1 Ag1 F3,3.988217,3.988217,3.988217,90.0,90.0,90.0,cubic,Pm-3m,-2.749971441,0.033178936,2.3751,Mg,Ag,F
mp-998418,Mg1 Ag1 F3,5.526014785,5.526014785,5.526013837,59.86917556,59.86917556,59.8691822,trig,R-3c,-2.765007489,0.018142888,2.1901,Mg,Ag,F
mp-1185841,Mg1 Al1 O3,3.674304,3.674304,3.674304,90.0,90.0,90.0,cubic,Pm-3m,-2.537314224,0.429348574,0.0,Mg,Al,O
mp-1185693,Mg1 B1 O3,3.357238,3.357238,3.357238,90.0,90.0,90.0,cubic,Pm-3m,-1.699964922,1.013810653,0.0,Mg,B,O
mp-1199652,Mg1 B1 O3,3.220441615,10.434268,12.48454368,90.0,95.09562198,90.0,mono,P2_1/c,-2.531132218,0.182643357,0.1888,Mg,B,O
mp-1185692,Mg1 Be1 O3,3.490528,3.490528,3.490528,90.0,90.0,90.0,cubic,Pm-3m,-1.806537313,0.649928676,0.0,Mg,Be,O
mp-1185847,Mg1 Bi1 O3,3.935588,3.935588,3.935588,90.0,90.0,90.0,cubic,Pm-3m,-1.642190122,0.456517276,0.0,Mg,Bi,O
mp-1376863,Mg1 Bi1 O3,5.651679,5.70683,8.292801,90.0,90.0,90.0,ortho,Pnma,-1.97466013,0.124047268,0.0,Mg,Bi,O
mp-2647164,Mg1 C1 O3,9.525298168,7.142288,8.243413121,90.0,102.9027773,90.0,mono,C2/m,-2.127845449,0.314648657,4.8023,Mg,C,O
mp-5348,Mg1 C1 O3,5.64985544,5.649855438,5.649855685,48.44321015,48.44320468,48.44319922,trig,R-3c,-2.442494106,0.0,4.9603,Mg,C,O
mp-546079,Mg1 C1 O3,5.162860567,5.162860567,3.646814,90.0,90.0,110.9725116,ortho,C222_1,-2.064432472,0.378061633,5.4366,Mg,C,O
mp-20424,Mg1 Co3 C1,3.76239029,3.76239029,3.76239029,90.0,90.0,90.0,cubic,Pm-3m,-0.048490149,0.0,0.0,Mg,C,Co
mp-1076820,Mg1 Co1 O3,3.65788348,3.65787367,3.65787544,90.0,90.0,90.0,cubic,Pm-3m,-1.34104603,0.551415777,0.0,Mg,Co,O
mp-755711,Mg1 Co1 O3,6.382678416,6.382678416,4.961926238,86.81401285,86.81401285,83.4258897,mono,C2/c,-1.788741414,0.103720393,0.1644,Mg,Co,O
mp-756102,Mg1 Co1 O3,4.927362,5.145678,7.191459,90.0,90.0,90.0,ortho,Pnma,-1.800386535,0.092075272,0.0,Mg,Co,O
mp-761524,Mg1 Co1 O3,5.356343431,5.356343431,5.356344352,54.75089747,54.75089747,54.75089366,trig,R-3,-1.826363841,0.066097966,0.0,Mg,Co,O
mp-1346485,Mg1 Cr1 O3,5.023085,5.228711,7.370666,90.0,90.0,90.0,ortho,Pnma,-2.38563727,0.120496968,0.2293,Mg,Cr,O
mp-2225290,Mg1 Cr1 O3,5.262659205,5.244500242,3.054912,90.0,90.0,116.0138207,mono,Pm,-2.334485622,0.171648616,0.9534,Mg,Cr,O
mp-1076317,Mg1 Cu1 O3,3.731181,3.731181,3.731181,90.0,90.0,90.0,cubic,Pm-3m,-1.15538876,0.498330607,0.0,Mg,Cu,O
mp-1076368,Mg1 Fe1 O3,3.765865,3.765865,3.765865,90.0,90.0,90.0,cubic,Pm-3m,-1.615973898,0.507199893,0.0,Mg,Fe,O
mp-1279364,Mg1 Fe1 O3,4.992874168,5.406242394,7.771013136,84.32479157,93.06461285,90.65209114,tri,P-1,-2.009776389,0.113397402,0.2,Mg,Fe,O
mp-1303831,Mg1 Fe1 O3,5.082138654,5.474779822,7.499918514,84.19248742,89.87475856,89.80349116,trig,R3,-2.009599506,0.113574285,0.2295,Mg,Fe,O
mp-1372708,Mg1 Fe1 O3,4.95391641,5.18178631,7.25737841,90.0,90.0,90.0,ortho,Pnma,-1.972832213,0.150341578,0.0,Mg,Fe,O
mp-752416,Mg1 Fe1 O3,6.497502189,6.497502189,5.361173624,89.97931548,89.97931548,83.13996802,mono,C2/c,-1.947187597,0.175986193,0.1129,Mg,Fe,O
mp-754508,Mg1 Fe1 O3,5.506430096,5.506430096,5.506429911,55.14471712,55.14471712,55.14472315,trig,R-3,-2.008446546,0.114727245,0.0,Mg,Fe,O
mp-1016827,Mg1 Ge1 O3,3.718173,3.718173,3.718173,90.0,90.0,90.0,cubic,Pm-3m,-2.040783233,0.52495472,1.5499,Mg,Ge,O
mp-3047,Mg1 Ge1 O3,4.881366294,4.881366294,6.93351539,90.0,90.0,146.4924055,ortho,Cmcm,-2.424330652,0.141407302,2.4744,Mg,Ge,O
mp-3759,Mg1 Ge1 O3,5.470433039,5.470433039,5.470433594,54.54174208,54.54174208,54.54174264,trig,R-3,-2.53393594,0.031802013,3.6339,Mg,Ge,O
mp-4575,Mg1 Ge1 O3,5.33724565,8.92147031,18.81824604,90.0,90.0,90.0,ortho,Pbca,-2.55288831,0.012849643,3.049,Mg,Ge,O
mp-4819,Mg1 Ge1 O3,6.553720039,6.553720039,5.168550134,82.13121205,82.13121205,85.83099141,mono,C2/c,-2.554010083,0.01172787,2.5261,Mg,Ge,O
mp-1185882,Mg1 Hg1 O3,3.973459,3.973459,3.973459,90.0,90.0,90.0,cubic,Pm-3m,-0.956973635,0.512373026,0.0,Mg,Hg,O
mp-29483,Mg1 In1 Br3,3.95662123,9.5483782,15.45483301,90.0,90.0,90.0,ortho,Pnma,-1.47489715,0.011251461,2.2355,Mg,In,Br
mp-1185889,Mg1 In1 O3,3.883706,3.883706,3.883706,90.0,90.0,90.0,cubic,Pm-3m,-1.412345633,0.800011728,0.0,Mg,In,O
mp-1232299,Mg1 In1 S3,6.809266424,6.809266424,6.516233002,75.66313301,75.66313301,120.2119545,mono,C2/m,-0.93479536,0.181166158,0.0,Mg,In,S
mp-1232193,Mg1 In1 Se3,7.029376502,10.553355,8.510194729,90.0,109.5588299,90.0,mono,C2/m,-0.762555395,0.279277628,0.0,Mg,In,Se
mp-1232401,Mg1 In1 Se3,6.589908,6.589908228,30.146029,90.0,90.0,119.9999989,trig,R-3,-0.764434499,0.277398523,0.0,Mg,In,Se
mp-1237970,Mg1 In1 Se3,6.566839408,6.566839408,8.02703332,81.46357952,81.46357952,119.4594492,mono,C2/m,-0.775467489,0.266365534,0.0,Mg,In,Se
mp-1016826,Mg1 Ir1 O3,3.921368,3.921368,3.921368,90.0,90.0,90.0,cubic,Pm-3m,-1.188034026,0.783825347,0.0,Mg,Ir,O
mp-770581,Mg1 Mn1 O3,5.008101,5.227589,7.304405,90.0,90.0,90.0,ortho,Pnma,-2.289005457,0.076736935,0.6265,Mg,Mn,O
mp-770618,Mg1 Mn1 O3,5.381283557,5.381250292,5.381132296,54.57638601,54.57836698,54.57589179,trig,R-3,-2.365742392,0.0,0.0,Mg,Mn,O
mp-976446,Mg1 Mn1 O3,3.73567,3.73567,3.73567,90.0,90.0,90.0,cubic,Pm-3m,-1.875530194,0.490212198,0.0,Mg,Mn,O
mp-1185896,Mg1 Mo1 O3,4.002462,4.002462,4.002462,90.0,90.0,90.0,cubic,Pm-3m,-1.787488498,0.640768283,0.0,Mg,Mo,O
mp-1342607,Mg1 Mo1 O3,5.279528,5.403173,7.850493,90.0,90.0,90.0,ortho,Pnma,-2.36831869,0.059938091,0.0679,Mg,Mo,O
mp-1206415,Mg1 Ni3 B1,3.862388,3.862388,3.862388,90.0,90.0,90.0,cubic,Pm-3m,-0.265770899,0.043298927,0.0,Mg,B,Ni
mp-10700,Mg1 Ni3 C1,3.78357767,3.78360493,3.7835918,90.0,90.0,90.0,cubic,Pm-3m,-0.130289974,0.0,0.0,Mg,C,Ni
mp-1017629,Mg1 Ni1 H3,3.31395467,3.31395467,3.31395467,90.0,90.0,90.0,cubic,Pm-3m,-0.251848014,0.005229103,0.0,Mg,Ni,H
mp-1016843,Mg1 Os1 O3,3.916779,3.916779,3.916779,90.0,90.0,90.0,cubic,Pm-3m,-1.372708154,0.648656036,0.0,Mg,Os,O
mp-675651,Mg1 P1 S3,6.090788279,6.088793441,7.080204607,81.98286681,73.80104249,59.98799497,mono,C2/m,-1.051832831,0.0,2.7986,Mg,P,S
mp-30943,Mg1 P1 Se3,7.910538789,7.910538605,7.910539209,47.91244771,47.91244183,47.91244234,trig,R-3,-0.881643759,0.0,2.0382,Mg,P,Se
mp-976722,Mg1 Pb1 O3,3.980508,3.980508,3.980508,90.0,90.0,90.0,cubic,Pm-3m,-1.494377026,0.500734861,0.0,Mg,Pb,O
mp-1185941,Mg1 Re1 O3,3.922568,3.922568,3.922568,90.0,90.0,90.0,cubic,Pm-3m,-1.726476866,0.649838266,0.0,Mg,Re,O
mp-1016929,Mg1 Rh1 O3,3.900215,3.900215,3.900215,90.0,90.0,90.0,cubic,Pm-3m,-1.22979868,0.716897825,0.0,Mg,Rh,O
mp-1016829,Mg1 Ru1 O3,3.883346,3.883346,3.883346,90.0,90.0,90.0,cubic,Pm-3m,-1.45594012,0.633980687,0.0,Mg,Ru,O
mp-769322,Mg1 S1 O3,11.9919,5.345052,8.093435278,80.11213058,90.0,90.0,mono,P2_1/c,-2.273988968,0.057395501,4.9221,Mg,S,O
mp-769347,Mg1 S1 O3,8.767642,4.354949,6.509737818,87.33532098,90.0,90.0,mono,P2_1/c,-2.257957395,0.073427074,5.0797,Mg,S,O
mp-769397,Mg1 S1 O3,7.800034664,7.800034664,7.800033921,109.4073278,109.4073278,109.4073352,trig,R-3,-2.282974486,0.048409983,5.0094,Mg,S,O
mp-1342178,Mg1 Sb1 O3,7.950041,5.549974,5.565261855,88.18962856,90.0,90.0,mono,P2_1/m,-2.173690773,0.198446434,0.5657,Mg,Sb,O
mp-1347225,Mg1 Sb1 O3,5.542728,5.46965,9.717378708,56.22988207,90.0,90.0,mono,P2_1/c,-2.213517803,0.158619403,1.9972,Mg,Sb,O
mp-1232175,Mg1 Sc1 S3,6.850932396,6.850932396,6.796515386,75.33910699,75.33910699,119.2727304,mono,C2/m,-1.473987958,0.317098725,0.0801,Mg,Sc,S
mp-1232226,Mg1 Sc1 S3,6.45091,6.450910054,17.54988,90.0,90.0,119.9999997,trig,R-3,-1.576904542,0.214182141,0.0,Mg,Sc,S
mp-1232150,Mg1 Sc1 Se3,7.264376125,7.264376125,6.792146623,76.31356707,76.31356707,121.8543174,mono,C2/m,-1.338024583,0.291540521,0.0,Mg,Sc,Se
mp-1232171,Mg1 Sc1 Se3,7.23217795,7.23217795,7.232178324,56.17814524,56.17814524,56.17814611,trig,R-3,-1.447999189,0.181565915,0.0,Mg,Sc,Se
mp-12271,Mg1 Se1 O3,5.01646551,5.91728012,7.64763004,90.0,90.0,90.0,ortho,Pnma,-2.024735936,0.0,4.0013,Mg,Se,O
mp-1016928,Mg1 Si1 O3,3.527218,3.527218,3.527218,90.0,90.0,90.0,cubic,Pm-3m,-2.763782162,0.467255233,2.9292,Mg,Si,O
mp-1020115,Mg1 Si1 O3,8.964748,5.279397,18.68860856,84.76841032,90.0,90.0,mono,Pc,-3.218253981,0.012783414,4.7633,Mg,Si,O
mp-1020117,Mg1 Si1 O3,8.921515,5.337009,18.77323364,85.55034329,90.0,90.0,mono,Pc,-3.219883888,0.011153507,4.7652,Mg,Si,O
mp-1020118,Mg1 Si1 O3,5.129915,8.952562,18.53411,90.0,90.0,90.0,ortho,Pca2_1,-3.212551148,0.018486247,4.8006,Mg,Si,O
mp-1020123,Mg1 Si1 O3,8.990492,5.198045,18.80092451,83.89327501,90.0,90.0,mono,P2/c,-3.21037992,0.020657475,4.6316,Mg,Si,O
mp-1020124,Mg1 Si1 O3,8.982055,5.25606,18.53142194,89.77495837,90.0,90.0,mono,P2_1/c,-3.220845786,0.010191609,4.8602,Mg,Si,O
mp-1020125,Mg1 Si1 O3,5.331131,8.92094,18.707792,90.0,90.0,90.0,ortho,Pca2_1,-3.219875767,0.011161628,4.831,Mg,Si,O
mp-1020361,Mg1 Si1 O3,8.900028,5.352521,18.64141193,88.79596128,90.0,90.0,mono,P2/c,-3.220523215,0.01051418,4.7926,Mg,Si,O
mp-1180468,Mg1 Si1 O3,7.606271035,7.606271035,6.074523218,77.31131133,77.31131133,102.3459483,mono,C2/c,-1.56475286,1.666284536,0.4428,Mg,Si,O
mp-1180703,Mg1 Si1 O3,7.041038791,7.764573903,7.764573047,46.24086938,49.59322891,49.59323605,mono,C2/c,-2.828551398,0.402485997,2.2265,Mg,Si,O
mp-1181528,Mg1 Si1 O3,6.212832433,11.40838,7.793944631,90.0,110.669087,90.0,mono,P2_1/c,-2.930566756,0.30047064,3.0501,Mg,Si,O
mp-1182302,Mg1 Si1 O3,5.129543401,15.171365,6.41986247,90.0,87.41962911,90.0,mono,P2_1/c,-2.936371995,0.2946654,3.2732,Mg,Si,O
mp-1195746,Mg1 Si1 O3,8.896421,5.22871,9.406712594,86.05147106,90.0,90.0,mono,P2/c,-3.209414281,0.021623114,4.4998,Mg,Si,O
mp-1196002,Mg1 Si1 O3,8.940908,5.263367,18.62369252,89.42909378,90.0,90.0,mono,P2/c,-3.214198729,0.016838666,4.5845,Mg,Si,O
mp-1199778,Mg1 Si1 O3,5.385009,8.832554,9.393232,90.0,90.0,90.0,ortho,Pna2_1,-3.219160742,0.011876653,4.6372,Mg,Si,O
mp-1256030,Mg1 Si1 O3,4.93884,8.845569,9.671739,90.0,90.0,90.0,ortho,Pnma,-2.789186297,0.441851098,1.0261,Mg,Si,O
mp-3470,Mg1 Si1 O3,8.7965239,5.164353739,9.377797698,76.66814828,90.0,90.0,mono,P2_1/c,-3.223359357,0.007678038,4.7797,Mg,Si,O
mp-3547,Mg1 Si1 O3,4.830907,4.981026,6.978868,90.0,90.0,90.0,ortho,Pnma,-3.013996862,0.217040533,5.4155,Mg,Si,O
mp-4321,Mg1 Si1 O3,6.435026357,6.435026357,4.990837375,81.02678019,81.02678019,86.38327046,mono,C2/c,-3.211768395,0.019269,4.5304,Mg,Si,O
mp-4391,Mg1 Si1 O3,2.716358,4.802127623,6.729538,90.0,90.0,106.4290968,ortho,Cmcm,-2.969918619,0.261118776,4.6425,Mg,Si,O
mp-5026,Mg1 Si1 O3,5.31230984,8.71185874,9.26667111,90.0,90.0,90.0,ortho,Pbcn,-3.222704751,0.008332644,4.7421,Mg,Si,O
mp-530986,Mg1 Si1 O3,10.04867239,10.04867239,16.39652185,89.97774463,89.97774463,70.23121932,mono,C2,-3.127845193,0.103192202,4.6987,Mg,Si,O
mp-554137,Mg1 Si1 O3,9.061406,5.263346,9.380497699,80.60015362,90.0,90.0,mono,P2_1/c,-3.12250531,0.108532085,3.7886,Mg,Si,O
mp-556940,Mg1 Si1 O3,5.290159,9.185069,18.429241,90.0,90.0,90.0,ortho,Pbca,-3.121811921,0.109225475,3.9377,Mg,Si,O
mp-557803,Mg1 Si1 O3,5.19847528,8.82304323,9.1518143,90.0,90.0,90.0,ortho,Pna2_1,-3.218398298,0.012639097,4.9148,Mg,Si,O
mp-5834,Mg1 Si1 O3,5.245794,8.945396,18.449503,90.0,90.0,90.0,ortho,Pbca,-3.223171306,0.007866089,4.7002,Mg,Si,O
mp-5924,Mg1 Si1 O3,5.346176294,5.346176294,5.346176811,53.189621,53.189621,53.18962004,trig,R-3,-3.113965055,0.11707234,5.7928,Mg,Si,O
mp-603907,Mg1 Si1 O3,6.376932889,6.376932889,4.894926183,84.04629231,84.04629231,80.386135,mono,C2/c,-3.039748184,0.191289211,5.0422,Mg,Si,O
mp-603930,Mg1 Si1 O3,6.659579218,6.659579218,5.307129911,73.13843529,73.13843529,81.75693793,mono,C2/c,-3.221626549,0.009410846,4.5444,Mg,Si,O
mp-642209,Mg1 Si1 O3,4.816389,8.826494,9.591577,90.0,90.0,90.0,ortho,Pna2_1,-2.781874755,0.44916264,1.4453,Mg,Si,O
mp-642210,Mg1 Si1 O3,4.870258,10.132718,10.956246,90.0,90.0,90.0,ortho,Pna2_1,-3.084747745,0.14628965,4.308,Mg,Si,O
mp-642216,Mg1 Si1 O3,8.48329,4.913015,9.483557285,81.78613552,90.0,90.0,mono,P2_1/c,-3.10532082,0.125716575,5.1709,Mg,Si,O
mp-642228,Mg1 Si1 O3,5.250414,9.199812,18.576097,90.0,90.0,90.0,ortho,Pbca,-3.025074768,0.205962627,3.1742,Mg,Si,O
mp-644879,Mg1 Si1 O3,4.990599,9.063945,9.34514,90.0,90.0,90.0,ortho,Pbcn,-3.180210771,0.050826625,4.5951,Mg,Si,O
mp-657336,Mg1 Si1 O3,5.095143,8.534164,9.562052,90.0,90.0,90.0,ortho,Pna2_1,-2.941557476,0.289479919,2.5861,Mg,Si,O
mp-657338,Mg1 Si1 O3,5.437069,8.284873,19.581675,90.0,90.0,90.0,ortho,Pbca,-3.097866201,0.133171194,4.3843,Mg,Si,O
mp-772412,Mg1 Si1 O3,10.05341496,10.05341496,10.05341496,109.2415534,109.2415534,109.9315381,tet,I4_1/a,-3.142319338,0.088718058,4.9532,Mg,Si,O
mp-1016820,Mg1 Sn1 O3,4.025234,4.025234,4.025234,90.0,90.0,90.0,cubic,Pm-3m,-1.866468147,0.629874776,1.3084,Mg,Sn,O
mp-1176491,Mg1 Sn1 O3,5.599352409,5.599352409,5.599352344,56.16581344,56.16581341,56.16581038,trig,R-3,-2.492748274,0.003594649,2.5629,Mg,Sn,O
mp-769348,Mg1 Sn1 O3,5.331653,5.456908,7.839454,90.0,90.0,90.0,ortho,Pnma,-2.423332425,0.073010498,2.3909,Mg,Sn,O
mp-1016830,Mg1 Ti1 O3,3.842492,3.842492,3.842492,90.0,90.0,90.0,cubic,Pm-3m,-2.907458667,0.455477979,1.9098,Mg,Ti,O
mp-1345923,Mg1 Ti1 O3,5.100857,5.302552,7.464316,90.0,90.0,90.0,ortho,Pnma,-3.280028919,0.082907727,2.3514,Mg,Ti,O
mp-3771,Mg1 Ti1 O3,5.470981294,5.470981953,5.470981814,55.07158166,55.07158285,55.07157571,trig,R-3,-3.362936646,0.0,3.5295,Mg,Ti,O
mp-1210617,Mg1 Tl1 Cl3,7.02457848,7.00641041,9.98633726,90.0,90.0,90.0,ortho,Pnma,-1.862807239,0.020793652,4.4363,Mg,Tl,Cl
mp-998739,Mg1 Tl1 F3,4.077736643,4.077044879,4.074990024,90.00170047,89.96497647,89.99560641,cubic,Pm-3m,-3.077413419,0.0,4.487,Mg,Tl,F
mp-1185613,Mg1 Tl1 O3,3.968634,3.968634,3.968634,90.0,90.0,90.0,cubic,Pm-3m,-1.195977605,0.569564717,0.0,Mg,Tl,O
mp-1185614,Mg1 U1 O3,3.81296,3.81296,3.81296,90.0,90.0,90.0,cubic,Pm-3m,-2.842065498,0.623524714,0.0,Mg,U,O
mp-1016886,Mg1 V1 O3,3.779221,3.779221,3.779221,90.0,90.0,90.0,cubic,Pm-3m,-2.258337826,0.510588148,0.0,Mg,V,O
mp-1079330,Mg1 V1 O3,5.785580398,5.785580398,5.311099,90.0,90.0,125.0726864,ortho,Cmc2_1,-2.584205232,0.184720742,0.0,Mg,V,O
mp-1370061,Mg1 V1 O3,5.092734,5.249877,7.449735,90.0,90.0,90.0,ortho,Pnma,-2.676109437,0.092816537,0.6976,Mg,V,O
mp-27186,Mg1 V1 O3,5.2504353,5.22821384,5.709936488,89.99996492,117.3718236,89.99999995,ortho,Cmcm,-2.768925974,0.0,2.7895,Mg,V,O
mp-545348,Mg1 V1 O3,5.816439169,5.816439169,5.341526,90.0,90.0,126.7874295,ortho,Cmmm,-2.50674272,0.262183254,0.0,Mg,V,O
mp-1147661,Mg1 V1 S3,6.673448788,7.053671324,10.96229389,80.29820897,72.27901967,61.76766976,mono,Cm,-1.16383188,0.2209765,0.4611,Mg,V,S
mp-1326513,Mg1 W1 O3,5.305195,5.425326,7.898059,90.0,90.0,90.0,ortho,Pnma,-2.373189851,0.081783085,2.438,Mg,W,O
mp-1413707,Mg1 W1 O3,4.093572601,4.093572601,4.14933115,84.22692635,84.22692635,94.88192269,mono,Cm,-2.057359212,0.397613724,0.0,Mg,W,O
mp-1185612,Mg1 Zn1 O3,3.820297,3.820297,3.820297,90.0,90.0,90.0,cubic,Pm-3m,-1.227882606,0.703800707,0.0,Mg,Zn,O
mp-1017000,Mg1 Zr1 O3,4.133326,4.133326,4.133326,90.0,90.0,90.0,cubic,Pm-3m,-2.835932366,0.667561955,1.0257,Mg,Zr,O
mp-10666,Mn3 Ag1 N1,4.003595,4.003595,4.003595,90.0,90.0,90.0,cubic,Pm-3m,-0.177103102,0.101390397,0.0,Ag,N,Mn
mp-4593,Mn3 Al1 C1,3.96073285,3.96077457,3.96073517,90.0,90.0,90.0,cubic,Pm-3m,-0.191570678,0.0,0.0,Al,C,Mn
mp-1207055,Mn3 Al1 N1,3.76964,3.76964,3.76964,90.0,90.0,90.0,cubic,Pm-3m,-0.444154884,0.189247354,0.0,Al,N,Mn
mp-1206774,Mn3 As1 N1,3.826193,3.826193,3.826193,90.0,90.0,90.0,cubic,Pm-3m,-0.177386089,0.170563436,0.0,As,N,Mn
mp-1206777,Mn3 As1 N1,4.803102,4.803102,4.803102,90.0,90.0,90.0,cubic,Pm-3m,1.482416075,1.8303656,0.0,As,N,Mn
mp-1210597,Mn3 As1 N1,4.602155,4.602155,4.35962,90.0,90.0,90.0,tet,P4/mmm,1.539279965,1.88722949,0.0,As,N,Mn
mp-1207183,Mn3 Au1 N1,3.822994,3.822994,3.822994,90.0,90.0,90.0,cubic,Pm-3m,-0.316705495,0.094171633,0.0,Au,N,Mn
mp-1070242,Mn3 Cu1 N1,4.510185,4.510185,4.510185,90.0,90.0,90.0,cubic,Pm-3m,1.625473952,1.90396745,0.0,Cu,N,Mn
mp-510380,Mn3 Cu1 N1,3.828847,3.828847,3.828847,90.0,90.0,90.0,cubic,Pm-3m,-0.209661352,0.068832146,0.0,Cu,N,Mn
mp-20164,Mn3 Ga1 C1,4.62267,4.62267,4.62267,90.0,90.0,90.0,cubic,Pm-3m,1.916962348,2.037093279,0.0,Ga,C,Mn
mp-21313,Mn3 Ga1 C1,3.97641365,3.97674201,3.9770618,90.0,90.0,90.0,cubic,Pm-3m,-0.120130931,0.0,0.0,Ga,C,Mn
mp-627439,Mn3 Ga1 N1,3.9957991,3.99398876,3.995899051,90.00014342,89.99833657,90.00082652,cubic,Pm-3m,-0.442840044,0.0,0.0,Ga,N,Mn
mp-20180,Mn3 Ge1 C1,3.793362,3.793362,3.793362,90.0,90.0,90.0,cubic,Pm-3m,-0.057744077,0.038807042,0.0,Ge,C,Mn
mp-22706,Mn3 Ge1 C1,5.495069339,5.495069339,5.495069339,122.5754021,122.5754021,85.59430588,tet,I4/mcm,-0.083584778,0.012966341,0.0,Ge,C,Mn
mp-22492,Mn3 Ge1 Ir1,6.609486,6.609486,6.609486,90.0,90.0,90.0,cubic,P2_13,-0.043322446,0.122770651,0.0,Ge,Ir,Mn
mp-1205588,Mn3 Ge1 N1,5.499840665,5.499840665,5.499840665,123.0810474,123.0810474,84.74148246,tet,I4/mcm,-0.283973626,0.007051796,0.0,Ge,N,Mn
mp-1206402,Mn3 Hg1 N1,4.044621,4.044621,4.044621,90.0,90.0,90.0,cubic,Pm-3m,-0.170498983,0.107994515,0.0,Hg,N,Mn
mp-1094118,Mn3 In1 C1,3.948665,3.948665,3.948665,90.0,90.0,90.0,cubic,Pm-3m,0.028566076,0.099736581,0.0,In,C,Mn
mp-21058,Mn3 In1 C1,5.081511,5.081511,5.081511,90.0,90.0,90.0,cubic,Pm-3m,2.342979286,2.414149791,0.0,In,C,Mn
mp-22502,Mn3 Ir1 N1,3.907042,3.907042,3.907042,90.0,90.0,90.0,cubic,Pm-3m,-0.218348084,0.086666013,0.0,Ir,N,Mn
mp-20362,Mn3 Ni1 N1,3.838489,3.838489,3.838489,90.0,90.0,90.0,cubic,Pm-3m,-0.345212069,0.061092946,0.0,Ni,N,Mn
mp-10198,Mn3 Pd1 N1,3.94285,3.94285,3.94285,90.0,90.0,90.0,cubic,Pm-3m,-0.30064956,0.022875056,0.0,Pd,N,Mn
mp-7070,Mn3 Pt1 N1,3.97888141,3.97888141,3.97888141,90.0,90.0,90.0,cubic,Pm-3m,-0.380822568,0.0,0.0,Pt,N,Mn
mp-21186,Mn3 Rh1 N1,4.81553,4.81553,4.81553,90.0,90.0,90.0,cubic,Pm-3m,1.603114474,2.06270956,0.0,Rh,N,Mn
mp-582028,Mn3 Rh1 N1,3.901408,3.901408,3.901408,90.0,90.0,90.0,cubic,Pm-3m,-0.374927058,0.084668028,0.0,Rh,N,Mn