mp_id,formula,sites,composition,a_edge (angstrom),b_edge (angstrom),c_edge (angstrom),alpha_ang (deg),beta_ang (deg),gamma_ang (deg),crystal_system,space_group,total_magnetisation (bohr),energy_per_atom (eV/atom),formation_energy (eV/atom),energy_above_hull (eV/atom),stable,density (g/cc),band_gap (eV),direct_bandgap,volume (cubic-angstrom),bulk_modulus (GPa),shear_modulus (GPa)
mp-19265,DyNiO3,20,Dy1 Ni1 O3,5.153995031,5.49893767,7.390526828,89.99977502,89.99809542,90.00004845,ortho,Pnma,3.9999993,-7.549553844,-2.501074799,0,TRUE,8.536353718,0,FALSE,209.4585969,,
mp-1183790,DyPaO3,5,Dy1 Pa1 O3,4.308022,4.308022,4.308022,90,90,90,cubic,Pm-3m,1.9999704,-8.622724074,-2.821412929,0.991303253,FALSE,9.17021653,0,FALSE,79.952811,,
mp-15856,DyRh3C,5,Dy1 Rh3 C1,4.14780277,4.14780277,4.14780277,90,90,90,cubic,Pm-3m,4.00E-07,-7.690970076,-0.50297715,0,TRUE,11.24465609,0,FALSE,71.35990971,,
mp-1183821,DyRhO3,5,Dy1 Rh1 O3,3.940347,3.940347,3.940347,90,90,90,cubic,Pm-3m,0.0267643,-7.377436208,-2.012122925,0.569480333,FALSE,8.506478528,0,FALSE,61.17914549,,
mp-1212884,DyRhO3,20,Dy1 Rh1 O3,5.21847713,5.75597356,7.573281,90,90,90,ortho,Pnma,0,-7.946916541,-2.581603258,0,TRUE,9.150958,0.8883,TRUE,227.4817948,,
mp-1206121,DyRu3C,5,Dy1 Ru3 C1,4.13466309,4.13466309,4.13466309,90,90,90,cubic,Pm-3m,3.20E-06,-8.54678541,-0.212735682,0,TRUE,11.22284012,0,FALSE,70.68388009,,
mp-1207184,DySbO3,5,Dy1 Sb1 O3,4.248024,4.248024,4.248024,90,90,90,cubic,Pm-3m,8.36E-05,-6.611775036,-1.893523079,1.039270389,FALSE,7.197205784,0,FALSE,76.65860028,,
mp-1225550,DySbTe3,5,Dy1 Sb1 Te3,10.76923483,10.76923483,10.76923489,23.33707589,23.33707589,23.33707612,trig,R3m,0.0048819,-4.626130252,-0.990671362,0.029413949,FALSE,6.43683018,0.8479,FALSE,172.0845756,,
mp-31120,DyScO3,20,Dy1 Sc1 O3,5.45367,5.747842,7.988247,90,90,90,ortho,Pnma,0.0014181,-9.120001231,-3.961055701,0.025833509,FALSE,6.776053477,4.4598,TRUE,250.4062485,"{'voigt': 167.613, 'reuss': 161.742, 'vrh': 164.678}","{'voigt': 83.453, 'reuss': 81.071, 'vrh': 82.262}"
mp-1184176,DyScS3,20,Dy1 Sc1 S3,6.37621861,7.00288526,9.52664085,90,90,90,ortho,Pnma,0,-15.772779,-2.275721434,0,TRUE,4.741368135,1.7737,FALSE,425.3828748,,
mp-769393,DySeO3,40,Dy1 Se1 O3,12.22147792,5.931740473,8.88506698,73.80175795,89.99950874,89.9991949,mono,P2_1/c,0,-7.116776911,-2.525142906,0,TRUE,6.21656419,1.8154,FALSE,618.5495841,,
mp-1070146,DySi3Ir,5,Dy1 Si3 Ir1,5.708651666,5.708651666,5.708651666,137.1650738,137.1650738,62.18416398,tet,I4mm,0,-6.728773654,-0.782220894,0,TRUE,8.578545159,0,FALSE,84.97159279,,
mp-1184153,DySnO3,5,Dy1 Sn1 O3,4.138491,4.138491,4.138491,90,90,90,cubic,Pm-3m,0.0004956,-6.844083536,-2.149717456,0.848425574,FALSE,7.712473706,0,FALSE,70.88038131,,
mp-779599,DyTiO3,20,Dy1 Ti1 O3,5.3356,5.716985,7.692903,90,90,90,ortho,Pnma,3.9904202,-9.103798283,-3.632248171,0.057282459,FALSE,7.313117184,0,FALSE,234.6608141,,
mp-752435,DyTmO3,20,Dy1 Tm1 O3,5.637906,5.907363,8.328938,90,90,90,ortho,Pnma,5.33E-05,-8.748449256,-3.959497252,0.08806209,FALSE,9.085365316,4.8481,TRUE,277.3965902,,
mp-22789,DyVO3,20,Dy1 V1 O3,5.25263721,5.66556438,7.54368515,90,90,90,ortho,Pnma,8,-9.005861854,-3.296628931,0,TRUE,7.735287972,1.6568,FALSE,224.4936902,,
mp-1181506,DyVSb3,20,Dy1 V1 Sb3,6.182767891,6.151420121,12.7536331,90.00015439,89.99970565,89.99836354,ortho,Pbcm,7.3129507,-5.841759233,-0.623902169,0,TRUE,7.924766148,0,FALSE,485.0564125,,
mp-768333,DyYO3,30,Dy1 Y1 O3,6.445616694,6.445616694,12.800039,90,90,120.0000071,hex_,P6_3cm,0.0005772,-9.077124425,-3.882854417,0.096604435,FALSE,6.477198017,3.0318,FALSE,460.5436984,,
mp-10038,Er3AlC,5,Er3 Al1 C1,5.303405,5.303405,5.303405,90,90,90,cubic,Pm-3m,6.60E-06,-3.890210928,1.445268623,1.87665023,FALSE,6.020002828,0,FALSE,149.1641237,"{'voigt': 38.49, 'reuss': 38.49, 'vrh': 38.49}","{'voigt': 24.951, 'reuss': 7.866, 'vrh': 16.408}"
mp-568021,Er3AlC,5,Er3 Al1 C1,4.80526343,4.80526343,4.80526343,90,90,90,cubic,Pm-3m,1.10E-06,-5.766861158,-0.431381607,0,TRUE,8.092998743,0,FALSE,110.9562074,,
mp-1017558,Er3AlN,5,Er3 Al1 N1,4.68650677,4.68650677,4.68650677,90,90,90,cubic,Pm-3m,6.10E-06,-24.63189949,-1.104468588,0,TRUE,8.756153709,0,FALSE,102.9313683,,
mp-10274,Er3GaC,5,Er3 Ga1 C1,5.253141,5.253141,5.253141,90,90,90,cubic,Pm-3m,0.0013796,-4.005390444,1.186593145,1.629007376,FALSE,6.684066284,0,FALSE,144.9630019,"{'voigt': 46.623, 'reuss': 46.623, 'vrh': 46.623}","{'voigt': 30.371, 'reuss': 12.236, 'vrh': 21.304}"
mp-10275,Er3InC,5,Er3 In1 C1,5.533707,5.533707,5.533707,90,90,90,cubic,Pm-3m,0.0021078,-3.528453038,1.609746095,1.96854864,FALSE,6.159974741,0,FALSE,169.4526952,"{'voigt': 40.114, 'reuss': 40.114, 'vrh': 40.114}","{'voigt': 23.447, 'reuss': 1.697, 'vrh': 12.572}"
mp-31058,Er3InN,5,Er3 In1 N1,4.73048637,4.73048637,4.73048637,90,90,90,cubic,Pm-3m,2.89E-05,-27.90605794,-1.209328626,0,TRUE,9.892062422,0,FALSE,105.8564649,,
mp-20430,Er3PbC,5,Er3 Pb1 C1,5.625335,5.625335,5.625335,90,90,90,cubic,Pm-3m,0.003957,-3.673881772,1.655012027,2.082803886,FALSE,6.725611565,0,FALSE,178.0103163,,
mp-22537,Er3SnC,5,Er3 Sn1 C1,5.552727,5.552727,5.552727,90,90,90,cubic,Pm-3m,0.0034011,-3.901564086,1.48671467,2.018977587,FALSE,6.134640005,0,FALSE,171.2059941,,
mp-21028,Er3TlC,5,Er3 Tl1 C1,5.566596,5.566596,5.566596,90,90,90,cubic,Pm-3m,0.0013847,-3.430886724,1.629772084,1.942665544,FALSE,6.913657358,0,FALSE,172.4920603,,
mp-1184150,ErAlO3,5,Er1 Al1 O3,3.69546,3.69546,3.69546,90,90,90,cubic,Pm-3m,1.28E-05,-8.226557722,-3.595122191,0.186070174,FALSE,7.970529553,3.0097,FALSE,50.4667709,,
mp-754184,ErAlO3,10,Er1 Al1 O3,3.445752202,3.445752202,11.449682,90,90,120.0000039,hex_,P6_3/mmc,9.90E-06,-8.326985139,-3.695549608,0.085642757,FALSE,6.833301218,3.5604,FALSE,117.7313501,,
mp-756458,ErAlO3,20,Er1 Al1 O3,5.11890551,5.31641715,7.32664956,90,90,90,ortho,Pnma,0,-8.394795851,-3.76336032,0.017832045,FALSE,8.069583178,6.0359,TRUE,199.3891779,,
mp-5426,ErB3Mo,10,Er1 B3 Mo1,3.14853331,5.396441535,6.795746495,101.795798,90,90,mono,P2_1/m,1.00E-07,-7.730199435,-0.639890588,0,TRUE,8.686545192,0,FALSE,113.0273255,,
mp-10791,ErBO3,60,Er1 B1 O3,7.182487,8.983940598,9.838167388,81.33542328,85.65877983,77.35866253,tri,P-1,0.0047293,-8.723252135,-3.505053416,0.062195207,FALSE,7.363473545,5.1618,FALSE,611.7684685,,
mp-1194043,ErBO3,30,Er1 B1 O3,6.471126237,6.471126237,9.485993881,70.42592957,70.42592957,60.08046882,mono,C2/c,0,-8.785447342,-3.567248623,0,TRUE,7.094939422,5.6534,FALSE,317.4615501,,
mp-760405,ErBO3,10,Er1 B1 O3,3.915666903,3.915666903,8.606045,90,90,117.3416567,ortho,Ama2,0,-8.692274711,-3.474075992,0.093172631,FALSE,6.405482703,4.563,FALSE,117.2105508,,
mp-10061,ErBPd3,5,Er1 B1 Pd3,4.304722,4.304722,4.304722,90,90,90,cubic,Pm-3m,0.0008943,-22.69787405,-0.667244015,0.114762246,FALSE,10.35281433,0,FALSE,79.76921708,"{'voigt': 146.762, 'reuss': 146.762, 'vrh': 146.762}","{'voigt': 29.915, 'reuss': 11.378, 'vrh': 20.647}"
mp-3769,ErBRh3,5,Er1 B1 Rh3,4.15895118,4.15895118,4.15895118,90,90,90,cubic,Pm-3m,0.6594741,-7.482302914,-0.814296076,0,TRUE,11.23663194,0,FALSE,71.93685835,,
mp-1184148,ErBeO3,5,Er1 Be1 O3,3.52044117,3.52044117,3.52044117,90,90,90,cubic,Pm-3m,1.0005525,-7.517869266,-2.887666328,0.382023041,FALSE,8.535477269,0,FALSE,43.63060887,,
mp-754636,ErBiO3,10,Er1 Bi1 O3,6.115481636,6.115481636,6.115481542,58.60150668,58.60150668,58.60151704,trig,R-3,0.0004836,-7.458220703,-2.797893476,0.05151718,FALSE,8.999615343,2.47,FALSE,156.5540485,,
mp-754943,ErBiO3,10,Er1 Bi1 O3,6.136270504,6.136270504,6.13627022,58.520316,58.520316,58.52031053,trig,R3c,3.95E-05,-7.478872331,-2.818545104,0.030865552,FALSE,8.92571619,3.1136,FALSE,157.8502147,,
mp-562779,ErCoO3,20,Er1 Co1 O3,5.08216856,5.42485142,7.3068925,90,90,90,ortho,Pnma,0,-7.962130946,-2.653127237,0,TRUE,9.040484271,1.4471,FALSE,201.4510944,,
mp-1205515,ErCoSi3,10,Er1 Co1 Si3,10.70105606,10.70105606,3.939435,90,90,158.8887685,ortho,Cmmm,0.0168076,-6.192066639,-0.596648715,0.013481437,FALSE,6.345451071,0,FALSE,162.4824399,,
mp-19063,ErCrO3,20,Er1 Cr1 O3,5.18848926,5.52090784,7.50302878,90,90,90,ortho,Pnma,12.0000001,-9.049514932,-3.236585073,0,TRUE,8.259316967,0.2571,FALSE,214.9255427,,
mp-1184157,ErCuO3,5,Er1 Cu1 O3,3.765783,3.765783,3.765783,90,90,90,cubic,Pm-3m,0.000666,-6.906084548,-2.203922849,0.2747732,FALSE,8.669239077,0,FALSE,53.40302665,,
mp-19935,ErFeO3,20,Er1 Fe1 O3,5.23478674,5.58551303,7.59284986,90,90,90,ortho,Pnma,20.0023773,-8.440462712,-2.864138105,0.01795462,FALSE,8.111015951,1.5703,TRUE,222.0071058,,
mp-1213036,ErGa3Os,15,Er1 Ga3 Os1,6.35239464,6.35239464,6.35239464,90,90,90,cubic,Pm-3m,0.1299785,-5.46129247,-0.485417608,0,TRUE,11.0123236,0,FALSE,256.3376579,,
mp-1103943,ErGa3Ru,15,Er1 Ga3 Ru1,6.34642962,6.34642962,6.34642962,90,90,90,cubic,Pm-3m,0,-5.169319739,-0.584037855,0,TRUE,9.305795499,0,FALSE,255.6162179,,
mp-1184164,ErGaO3,5,Er1 Ga1 O3,3.78183872,3.78183872,3.78183872,90,90,90,cubic,Pm-3m,0,-7.303556288,-2.815616718,0.382683968,FALSE,8.748926587,2.9153,FALSE,54.08900745,,
mp-1213082,ErGaO3,20,Er1 Ga1 O3,5.269754,5.574949,7.612088,90,90,90,ortho,Pnma,0.000473,-7.63556537,-3.147625801,0.050674886,FALSE,8.464254916,3.6631,TRUE,223.6325631,,
mp-1213088,ErGaO3,30,Er1 Ga1 O3,5.98487367,5.984869476,11.60914576,90.0000188,89.99998474,119.9999531,hex_,P6_3cm,0,-7.672729525,-3.184789955,0.013510732,FALSE,7.884501907,2.9001,TRUE,360.1146357,,
mp-754208,ErInO3,20,Er1 In1 O3,5.521226,5.840363,8.176804,90,90,90,ortho,Pnma,0.0004479,-7.379971363,-2.945816249,0.079764493,FALSE,8.31501488,2.8823,TRUE,263.6689278,,
mp-772217,ErInO3,30,Er1 In1 O3,6.238329888,6.23832799,12.21741889,90.00000063,89.99999774,120.0000882,hex_,P6_3cm,0,-7.444365363,-3.010210249,0.015370493,FALSE,7.986693006,1.9651,FALSE,411.7619877,,
mp-1184162,ErIrO3,5,Er1 Ir1 O3,3.962793,3.962793,3.962793,90,90,90,cubic,Pm-3m,0.0001163,-7.419279494,-1.769272293,0.826676534,FALSE,10.87289144,0,FALSE,62.23062482,,
mp-778151,ErLuO3,20,Er1 Lu1 O3,5.582688,5.843866,8.226505,90,90,90,ortho,Pnma,2.10E-05,-8.78571314,-3.999055284,0.09138355,FALSE,9.657491079,4.525,TRUE,268.3854527,,
mp-1232164,ErMgS3,10,Er1 Mg1 S3,6.962137286,6.962137286,6.650083263,76.93160931,76.93160931,119.2804662,mono,C2/m,0.0002757,-5.23265149,-1.509997984,0.371650319,FALSE,3.800624897,0,FALSE,251.4507873,,
mp-1232145,ErMgSe3,10,Er1 Mg1 Se3,7.366527542,7.366527542,6.928445084,76.64564285,76.64564285,120.3776515,mono,C2/m,6.21E-05,-4.721561171,-1.384376519,0.329355584,FALSE,4.95390654,0,FALSE,287.2270577,,
mp-1232210,ErMgSe3,30,Er1 Mg1 Se3,6.873524,6.873523656,19.189641,90,90,120.0000017,trig,R-3,0.9583974,-4.836362883,-1.499178232,0.214553872,FALSE,5.436733606,0,FALSE,785.1567335,,
mp-19217,ErMnO3,30,Er1 Mn1 O3,6.079453238,6.079430599,11.38085613,90.00000082,89.99999731,119.9996731,hex_,P6_3cm,23.999999,-8.79721865,-3.082495226,0,TRUE,7.389986188,0,FALSE,364.279241,,
mp-19319,ErMnO3,20,Er1 Mn1 O3,5.198735051,5.754135201,7.32288723,89.99999594,90.00008523,90.002586,ortho,Pnma,15.9989688,-8.762813469,-3.048090046,0.034405181,FALSE,8.192693324,1.0455,TRUE,219.0584914,,
mp-1078854,ErNiGe3,10,Er1 Ni1 Ge3,10.97493954,10.97493954,4.070911,90,90,158.506398,ortho,Cmmm,2.63E-05,-5.3956931,-0.552305289,0.000829704,FALSE,8.205197827,0,FALSE,179.6586691,,
mp-1189736,ErNiO3,20,Er1 Ni1 O3,5.559041,5.181402,9.058277002,55.06460695,90,90,mono,P2_1/c,4.0001758,-7.554328854,-2.515981153,0.001576707,FALSE,8.5071007,0.3404,FALSE,213.8945757,,
mp-18983,ErNiO3,20,Er1 Ni1 O3,5.10714498,5.49542731,7.3320099,90,90,90,ortho,Pnma,4.0000005,-7.555905561,-2.51755786,0,TRUE,8.842572876,0,FALSE,205.7797793,,
mp-568727,ErRh3C,5,Er1 Rh3 C1,4.13379555,4.13379555,4.13379555,90,90,90,cubic,Pm-3m,1.00E-07,-7.705516856,-0.527655274,0,TRUE,11.47122129,0,FALSE,70.6393965,,
mp-1213022,ErRhO3,20,Er1 Rh1 O3,5.18710261,5.72004523,7.53016477,90,90,90,ortho,Pnma,0,-7.951800669,-2.59661873,0,TRUE,9.458659049,0.9642,TRUE,223.4234642,,
mp-1206911,ErRu3C,5,Er1 Ru3 C1,4.12095413,4.12095413,4.12095413,90,90,90,cubic,Pm-3m,1.07E-05,-8.569525722,-0.245607338,0,TRUE,11.44813657,0,FALSE,69.98312661,,
mp-1212985,ErScO3,20,Er1 Sc1 O3,5.420689,5.720861,7.943644,90,90,90,ortho,Pnma,0,-9.120838516,-3.972024329,0.040889039,FALSE,7.016210425,4.4171,TRUE,246.34041,,
mp-1190244,ErScS3,20,Er1 Sc1 S3,6.353452,6.970915,9.539495,90,90,90,ortho,Pna2_1,0.0006445,-16.13685936,-2.251075411,0.017259183,FALSE,4.848556838,1.7555,FALSE,422.4982604,,
mp-12386,ErSi3Ni,10,Er1 Si3 Ni1,3.892546996,3.92260637,10.60764251,90,100.5724412,90,ortho,Cmmm,0,-5.964020074,-0.639258158,0.02033115,FALSE,6.470560214,0,FALSE,159.2177432,,
mp-1225459,ErSiNi3,5,Er1 Si1 Ni3,5.706942797,5.706942797,5.706942797,141.2794707,141.2794707,55.91565916,tet,I4mm,0.0025728,-6.080526042,-0.613836666,0.014741681,FALSE,8.545931562,0,FALSE,72.17062531,,
mp-1184204,ErTaO3,5,Er1 Ta1 O3,4.022902,4.022902,4.022902,90,90,90,cubic,Pm-3m,0.000207,-9.040627106,-2.784921232,0.721276199,FALSE,10.10533646,0,FALSE,65.10560203,,
mp-756296,ErTiO3,20,Er1 Ti1 O3,5.303883,5.688936,7.660294,90,90,90,ortho,Pnma,3.9341065,-9.105442704,-3.644023935,0.058028161,FALSE,7.561352073,0,FALSE,231.1375052,,
mp-1184219,ErTlO3,5,Er1 Tl1 O3,4.406,4.406,4.406,90,90,90,cubic,Pm-3m,2.0279758,-6.351558452,-1.994943664,0.583822038,FALSE,8.146911805,0,FALSE,85.53295542,,
mp-19205,ErVO3,20,Er1 V1 O3,5.20978186,5.64494742,7.49784195,90,90,90,ortho,Pnma,8,-9.009617457,-3.310515878,0,TRUE,8.018613803,1.5838,FALSE,220.503619,,
mp-1184207,ErZnO3,5,Er1 Zn1 O3,3.827502,3.827502,3.827502,90,90,90,cubic,Pm-3m,0.0002491,-6.419305086,-2.285035999,0.459870695,FALSE,8.311758826,0,FALSE,56.07202995,,
mp-1069296,Eu3InO,5,Eu3 In1 O1,5.05264029,5.05256428,5.05271312,90,90,90,cubic,Pm-3m,21.3701509,-9.167340546,-1.453046447,0,TRUE,7.552961566,0,FALSE,128.9896514,,
mp-1077622,EuAgO3,5,Eu1 Ag1 O3,4.089373,4.089373,4.089373,90,90,90,cubic,Pm-3m,6.4883625,-7.10164906,-1.506662538,0.403265287,FALSE,7.474642543,0,FALSE,68.38646827,,
mp-1225249,EuAl3Si,5,Eu1 Al3 Si1,6.239298855,6.239298855,6.239298855,139.2442459,139.2442459,59.00262184,tet,I4mm,7.0426657,-13.83110479,-0.332916326,0.028563793,FALSE,4.227061116,0,FALSE,102.5277169,,
mp-21455,EuAlO3,20,Eu1 Al1 O3,5.318991,5.33985,7.555933,90,90,90,ortho,Pnma,23.9990034,-9.099893921,-3.324379769,0.111482014,FALSE,7.023941446,0,FALSE,214.6082491,"{'voigt': 177.324, 'reuss': 177.178, 'vrh': 177.251}","{'voigt': 108.04, 'reuss': 103.715, 'vrh': 105.877}"
mp-973892,EuAlO3,5,Eu1 Al1 O3,3.768155,3.768155,3.768155,90,90,90,cubic,Pm-3m,5.996878,-9.0909795,-3.315465348,0.120396434,FALSE,7.043378478,0,FALSE,53.50400309,,
mp-983564,EuAsO3,5,Eu1 As1 O3,3.998452,3.998452,3.998452,90,90,90,cubic,Pm-3m,6.6835438,-8.219218426,-2.258794934,0.27696565,FALSE,7.140400683,0,FALSE,63.92572475,"{'voigt': 164.961, 'reuss': 164.961, 'vrh': 164.961}","{'voigt': 78.366, 'reuss': 78.263, 'vrh': 78.314}"
mp-1184383,EuAuO3,5,Eu1 Au1 O3,4.109532,4.109532,4.109532,90,90,90,cubic,Pm-3m,6.5049061,-7.15711418,-1.475938794,0.475574182,FALSE,9.496959263,0,FALSE,69.40281719,,
mp-1225223,EuBO3,10,Eu1 B1 O3,4.042074832,4.042074832,8.9696,90,90,118.4972262,ortho,Ama2,11.9994295,-9.42071244,-3.0584351,0.063179334,FALSE,5.435040532,0,FALSE,128.7928326,,
mp-22030,EuBO3,20,Eu1 B1 O3,6.282324533,6.504632506,6.492541379,92.85356108,107.4884273,106.9227666,tri,P-1,24.0000001,-9.460576592,-3.098299252,0.023315182,FALSE,5.849442167,0,FALSE,239.3371011,,
mp-20040,EuBPd3,5,Eu1 B1 Pd3,4.34027797,4.34027385,4.34027282,90,90,90,cubic,Pm-3m,6.8789908,-23.46449266,-0.514773107,0.07280895,FALSE,9.789848354,0,FALSE,81.76203757,,
mp-510377,EuBRh3,5,Eu1 B1 Rh3,4.22587613,4.22581656,4.22584018,90,90,90,cubic,Pm-3m,5.5711307,-8.275823618,-0.463738159,0.02434348,FALSE,10.37486594,0,FALSE,75.46411297,,
mp-1184325,EuBeO3,5,Eu1 Be1 O3,3.642742,3.642742,3.642742,90,90,90,cubic,Pm-3m,5,-8.339704094,-2.565422535,0.398306064,FALSE,7.178883536,0,FALSE,48.33761733,,
mp-554518,EuCO3,20,Eu1 C1 O3,5.10965115,5.94351265,8.41489239,90,89.99997449,90,ortho,Pnma,28.0000011,-9.494560945,-2.622428861,0,TRUE,5.509426855,0.4293,FALSE,255.5541916,,
mp-1183878,EuCdO3,5,Eu1 Cd1 O3,4.163324,4.163324,4.163324,90,90,90,cubic,Pm-3m,6.3226394,-6.894096038,-1.675695014,0.585351804,FALSE,7.187903433,0,FALSE,72.16400537,,
mp-10690,EuCoGe3,5,Eu1 Co1 Ge3,4.288636251,4.288636478,5.787390126,111.7474173,111.7474131,89.9999951,tet,I4mm,6.7529439,-19.12541619,-0.451206875,0,TRUE,7.854171519,0,FALSE,90.66108411,,
mp-1075975,EuCoO3,5,Eu1 Co1 O3,3.770115,3.770115,3.770115,90,90,90,cubic,Pm-3m,8.6335973,-8.508877282,-2.055794952,0.281767473,FALSE,8.022498231,0,FALSE,53.5875366,,
mp-1212757,EuCoO3,20,Eu1 Co1 O3,5.29294207,5.27999014,7.57930649,90,90,90,ortho,Pnma,24,-8.661387889,-2.208305559,0.129256866,FALSE,8.118460703,0,FALSE,211.8164678,,
mp-1189762,EuCrO3,20,Eu1 Cr1 O3,5.39511602,5.39569274,7.69309849,90,90,90,ortho,Pnma,35.9999996,-9.752701364,-2.795692884,0.110187279,FALSE,7.472887886,0,FALSE,223.9490846,,
mp-754941,EuCrO3,5,Eu1 Cr1 O3,3.879619,3.879619,3.879619,90,90,90,cubic,Pm-3m,8.9966662,-9.675087826,-2.718079346,0.187800817,FALSE,7.164906613,0,FALSE,58.39386651,,
mp-1075902,EuCuO3,5,Eu1 Cu1 O3,3.825935,3.825935,3.825935,90,90,90,cubic,Pm-3m,6.3010028,-7.823912492,-1.977672172,0.170852856,FALSE,7.813227495,0,FALSE,56.00318956,,
mp-1338333,EuCuO3,20,Eu1 Cu1 O3,8.089775986,8.089775986,6.304161325,70.40592621,70.40592621,47.04199132,mono,C2/c,24.0000001,-7.81962071,-1.97338039,0.175144638,FALSE,6.228186238,0,FALSE,281.0228492,,
mp-1225144,EuCuSi3,5,Eu1 Cu1 Si3,5.596672516,5.596672516,5.596672516,134.6879577,134.6879577,66.01543124,tet,I-4m2,6.849954,-6.352213916,-0.219559381,0.133817633,FALSE,5.705076604,0,FALSE,87.25106054,,
mp-1183905,EuErO3,5,Eu1 Er1 O3,4.303652,4.303652,4.303652,90,90,90,cubic,Pm-3m,5.985251,-9.080307512,-3.140364764,0.610768563,FALSE,7.650069908,0,FALSE,79.70974854,,
mp-1011260,EuFeO3,10,Eu1 Fe1 O3,5.522427079,5.522427079,5.522427079,120.3349113,119.509033,90.136686,ortho,Imma,21.9943269,-9.13360513,-2.413201902,0.162930053,FALSE,7.125813299,0,FALSE,119.2222786,,
mp-1075904,EuFeO3,5,Eu1 Fe1 O3,3.865278,3.865278,3.865278,90,90,90,cubic,Pm-3m,10.9853241,-9.079024254,-2.358621026,0.217510929,FALSE,7.355626299,0,FALSE,57.748699,,
mp-504703,EuFeO3,20,Eu1 Fe1 O3,5.498311,5.5879,7.796327,90,90,90,ortho,Pnma,44.0000896,-9.147178386,-2.426775158,0.149356797,FALSE,7.093390679,0,FALSE,239.5344446,,
mp-1225128,EuGa3Ag,5,Eu1 Ga3 Ag1,6.245589545,6.245589545,6.245589545,139.5323532,139.5323532,58.56404667,tet,I-4m2,6.946192,-19.30995557,-0.46893803,0,TRUE,7.660098195,0,FALSE,101.6690381,,
mp-1225152,EuGa3Cu,5,Eu1 Ga3 Cu1,6.089450218,6.089450218,6.089450218,139.6484425,139.6484425,58.38747938,tet,I-4m2,6.949563,-5.106048172,-0.411726842,0,TRUE,7.518369364,0,FALSE,93.79641197,,
mp-1078429,EuGa3Pd,10,Eu1 Ga3 Pd1,6.069418262,6.069418262,5.91717711,90,90,116.4756808,ortho,Cmcm,13.9218176,-19.8764438,-0.714510963,0,TRUE,7.958261346,0,FALSE,195.1154878,,
mp-1206706,EuGaO3,10,Eu1 Ga1 O3,3.672965252,3.672965252,11.597998,90,90,119.9999865,hex_,P6_3/mmc,12.0056604,-8.324854689,-2.692836499,0.164248114,FALSE,6.609808039,0,FALSE,135.5025161,,
mp-1212729,EuGaO3,20,Eu1 Ga1 O3,5.463648,5.623637,7.686061,90,90,90,ortho,Pnma,24.0013644,-8.315547045,-2.683528855,0.173555759,FALSE,7.585118744,0,FALSE,236.1586287,,
mp-1068715,EuGe3Ir,5,Eu1 Ge3 Ir1,5.973193329,5.973193329,5.973193329,136.029868,136.029868,63.93416227,tet,I4mm,6.7956024,-7.194591296,-0.595465364,0,TRUE,9.209099647,0,FALSE,101.3552579,,
mp-1068422,EuGe3Pd,5,Eu1 Ge3 Pd1,5.958681488,5.958681488,5.958681488,135.9971454,135.9971454,63.98474846,tet,I4mm,6.8883315,-6.448426666,-0.581011208,0,TRUE,7.851666359,0,FALSE,100.7329353,,
mp-19763,EuGe3Pt,5,Eu1 Ge3 Pt1,4.482715624,4.482712873,5.929244457,112.2109185,112.2109286,90.00000332,tet,I4mm,6.8489318,-6.694285784,-0.648620024,0,TRUE,9.317079162,0,FALSE,100.6915815,,
mp-1069658,EuGe3Rh,5,Eu1 Ge3 Rh1,5.922378063,5.922378063,5.922378063,136.2846057,136.2846057,63.54063592,tet,I4mm,6.8133933,-21.52292114,-0.668312321,0,TRUE,8.018124759,0,FALSE,97.91384627,,