mp_id,formula,sites,composition,a_edge (angstrom),b_edge (angstrom),c_edge (angstrom),alpha_ang (deg),beta_ang (deg),gamma_ang (deg),crystal_system,space_group,total_magnetisation (bohr),energy_per_atom (eV/atom),formation_energy (eV/atom),energy_above_hull (eV/atom),stable,density (g/cc),band_gap (eV),direct_bandgap,volume (cubic-angstrom),bulk_modulus (GPa),shear_modulus (GPa)
mp-771703,LaAlO3,30,La1 Al1 O3,6.851714,6.858873336,9.85453549,109.8104682,86.91555564,101.580856,tri,P-1,0.0001536,-8.384799595,-3.679706405,0.042760158,FALSE,4.993109722,4.1704,TRUE,426.7858282,,
mp-780411,LaAlO3,60,La1 Al1 O3,8.926582,8.801588,10.76172607,79.35831772,90,90,mono,P2_1/c,0.0005082,-8.33439119,-3.629298,0.093168563,FALSE,5.128817203,4.4685,FALSE,830.9863204,,
mp-780421,LaAlO3,30,La1 Al1 O3,6.819106,7.900936353,8.054993228,102.7046351,92.71731022,93.24450081,tri,P-1,9.74E-05,-8.34491938,-3.63982619,0.082640373,FALSE,5.05118823,4.2693,FALSE,421.8786493,,
mp-780422,LaAlO3,60,La1 Al1 O3,7.938888,7.367605,16.24774769,82.78194948,90,90,mono,P2_1/c,0.0017025,-8.391749497,-3.686656307,0.035810256,FALSE,4.52050903,4.2491,FALSE,942.8090747,,
mp-1079050,LaAsO3,10,La1 As1 O3,5.32325283,4.43439964,6.222333267,74.4633155,90,90,mono,P2_1/m,0,-7.753694633,-2.863692103,0,TRUE,6.144579314,2.693,FALSE,141.5137041,,
mp-28853,LaAuO3,20,La1 Au1 O3,4.03934509,5.70785039,13.10108913,90,90,90,ortho,Pbcm,0,-6.92562754,-2.314873116,0,TRUE,8.441168934,1.7977,FALSE,302.0584155,,
mp-7492,LaBO3,10,La1 B1 O3,4.179424058,5.08865142,6.314355325,90,107.6858439,90,mono,P2_1/m,0,-8.798787131,-3.506930753,0.014214797,FALSE,5.132122266,4.0022,FALSE,127.9443149,,
mp-8216,LaBO3,20,La1 B1 O3,5.12056909,5.8479603,8.25010439,90,90,90,ortho,Pnma,0,-8.813001928,-3.52114555,0,TRUE,5.315766468,4.5007,FALSE,247.0484251,,
mp-3846,LaBPd3,5,La1 B1 Pd3,4.417416,4.417416,4.417416,90,90,90,cubic,Pm-3m,0.0031814,-21.77211059,-0.577611543,0.144084255,FALSE,9.034315461,0,FALSE,86.19953035,,
mp-1018633,LaBPt3,5,La1 B1 Pt3,4.43091,4.43091,4.43091,90,90,90,cubic,Pm-3m,0.0002251,-39.09410768,-0.783250659,0.169689115,FALSE,14.02939747,0,FALSE,86.99189398,"{'voigt': 155.423, 'reuss': 155.423, 'vrh': 155.423}","{'voigt': -10.31, 'reuss': -286.821, 'vrh': -148.566}"
mp-3088,LaBRh3,5,La1 B1 Rh3,4.26187973,4.26187973,4.26187973,90,90,90,cubic,Pm-3m,0.6599832,-7.439526698,-0.697862201,0,TRUE,9.833800019,0,FALSE,77.41115893,"{'voigt': 165.301, 'reuss': 165.301, 'vrh': 165.301}","{'voigt': 65.928, 'reuss': 59.894, 'vrh': 62.911}"
mp-1222880,LaBeAl3,5,La1 Be1 Al3,6.178596264,6.178596264,6.178596264,139.5934619,139.5934619,58.47109197,tet,I-4m2,2.70E-06,-4.23447389,-0.252044398,0.110200626,FALSE,3.870310031,0,FALSE,98.192324,,
mp-981934,LaBeO3,5,La1 Be1 O3,3.707597,3.707597,3.707597,90,90,90,cubic,Pm-3m,0.9987437,-7.623507152,-2.919646555,0.259460226,FALSE,6.383239043,0,FALSE,50.96564986,,
mp-755003,LaBiO3,10,La1 Bi1 O3,6.298058724,6.298058724,6.298058326,60.02589617,60.02589617,60.02589877,trig,R-3,0.0001158,-7.462360249,-2.728375363,0.04065049,FALSE,7.438530497,2.6285,FALSE,176.7502235,,
mp-768310,LaBiO3,10,La1 Bi1 O3,6.27184036,6.27184036,6.271839422,59.99759032,59.99759032,59.99759113,trig,R3c,1.66E-05,-7.467816278,-2.733831392,0.035194461,FALSE,7.537041755,3.07,FALSE,174.4400483,,
mp-973869,LaCdO3,5,La1 Cd1 O3,4.180291,4.180291,4.180291,90,90,90,cubic,Pm-3m,0.0014118,-6.213028832,-2.06504877,0.411376229,FALSE,6.803894253,0,FALSE,73.04988647,"{'voigt': 130.971, 'reuss': 130.971, 'vrh': 130.971}","{'voigt': 51.725, 'reuss': 36.871, 'vrh': 44.298}"
mp-19973,LaCoGe3,5,La1 Co1 Ge3,4.33881559,4.338814936,5.797683737,111.9739712,111.9739748,89.99999928,tet,I4mm,1.00E-07,-17.50329873,-0.584309911,0,TRUE,7.454803188,0,FALSE,92.6092196,"{'voigt': 86.376, 'reuss': 86.368, 'vrh': 86.372}","{'voigt': 55.032, 'reuss': 54.706, 'vrh': 54.869}"
mp-989643,LaCoN3,10,La1 Co1 N3,4.040095203,5.727433628,7.447385271,102.4437451,89.99999409,110.6523568,mono,C2/m,0,-14.71429622,-0.641243549,0,TRUE,5.076409551,0.4901,FALSE,156.919904,,
mp-1180725,LaCoO3,10,La1 Co1 O3,5.427133464,5.377974265,5.420641796,60.92337332,60.47313587,60.65933577,mono,C2/c,4.0066067,-7.943823356,-2.561161988,0.03876415,FALSE,7.187006177,1.104,FALSE,113.5999353,,
mp-1181307,LaCoO3,10,La1 Co1 O3,10.54234393,10.54234393,6.302079,81.40569463,81.40569463,82.52045369,mono,C2/c,5.220665,-5.067580595,0.315080773,2.915006911,FALSE,1.199594538,0,FALSE,680.599495,,
mp-1185232,LaCoO3,20,La1 Co1 O3,5.467447,5.550136,7.809735,90,90,90,ortho,Pnma,0.0005337,-7.935100783,-2.552439415,0.047486723,FALSE,6.890196271,0.973,FALSE,236.9869898,,
mp-1272753,LaCoO3,20,La1 Co1 O3,5.558352918,9.401832445,5.547802245,90.11985765,60.68547882,72.89825823,tri,P1,4.0067708,-7.952157687,-2.569496319,0.03042982,FALSE,6.864404462,0.6739,FALSE,237.8774273,,
mp-1273989,LaCoO3,20,La1 Co1 O3,5.437777619,8.032935108,5.569240458,89.94873461,90.01827884,91.4205015,mono,P2_1/c,9.70E-06,-7.964667051,-2.582005683,0.017920455,FALSE,6.714259251,0,FALSE,243.1968758,,
mp-1277476,LaCoO3,20,La1 Co1 O3,5.498308833,5.590821086,7.792867773,89.72569796,91.74818082,89.55862809,tri,P-1,3.9777358,-7.947710977,-2.565049609,0.034876529,FALSE,6.819846823,0,FALSE,239.4316054,,
mp-1288145,LaCoO3,10,La1 Co1 O3,5.475249487,5.468355789,5.4410268,61.18310058,61.09933598,61.05012142,trig,R-3,3.9987316,-7.982587506,-2.599926138,0,TRUE,6.914735764,0.9497,FALSE,118.072977,,
mp-1504268,LaCoO3,10,La1 Co1 O3,5.516916838,5.516916838,5.460191301,60.77948044,60.77948044,60.58956079,ortho,Imma,0.0003899,-7.92744226,-2.544780892,0.055145246,FALSE,6.837232356,0.9398,FALSE,119.4113925,,
mp-19051,LaCoO3,20,La1 Co1 O3,5.361153262,7.620694114,5.44114223,90.03294689,89.78964199,91.17317138,trig,R-3c,0,-7.979271121,-2.596609753,0.003316385,FALSE,7.346953555,1.0014,FALSE,222.2535996,,
mp-510611,LaCoO3,5,La1 Co1 O3,4.445931,4.445931,4.445931,90,90,90,cubic,Pm-3m,2.6032421,-6.552312288,-1.16965092,1.430275218,FALSE,4.645237804,0,FALSE,87.87961685,,
mp-561922,LaCoO3,10,La1 Co1 O3,5.379516089,5.378457948,5.456663753,60.09469467,60.28142536,61.54033686,tri,P-1,3.9748815,-7.971176006,-2.588514638,0.0114115,FALSE,7.211992236,0,FALSE,113.2063666,,
mp-573180,LaCoO3,5,La1 Co1 O3,3.816817,3.816817,3.816817,90,90,90,cubic,Pm-3m,3.13E-05,-7.90603876,-2.523377392,0.076548746,FALSE,7.341623229,0.4388,FALSE,55.60374125,,
mp-570885,LaCoSb3,40,La1 Co1 Sb3,6.230947,12.199555,13.021695,90,90,90,ortho,Pbcm,0.0203217,-5.609322498,-0.718036988,0.006437704,FALSE,7.557417965,0,FALSE,989.8412888,,
mp-1068559,LaCoSi3,5,La1 Co1 Si3,5.64866014,5.64866014,5.64866014,136.738327,136.738327,62.84091213,tet,I4mm,4.00E-07,-14.48730384,-0.627242814,0,TRUE,5.603306502,0,FALSE,83.59886111,,
mp-13005,LaCrGe3,10,La1 Cr1 Ge3,6.174818489,6.174819738,5.96819897,90.00001943,89.99998517,119.9995258,hex_,P6_3/mmc,4.5115273,-17.77418845,-0.487377386,0,TRUE,6.889511273,0,FALSE,197.0717984,"{'voigt': 303732.603, 'reuss': 10933.41, 'vrh': 157333.006}","{'voigt': 181518.717, 'reuss': 155.525, 'vrh': 90837.121}"
mp-989612,LaCrN3,20,La1 Cr1 N3,7.205637819,7.205637819,5.957956718,78.68090126,78.68090126,90.1278287,mono,C2/c,0,-15.43245337,-0.991578443,0.011596411,FALSE,5.206290708,1.4148,FALSE,297.1601504,,
mp-18841,LaCrO3,5,La1 Cr1 O3,3.927151,3.927151,3.927151,90,90,90,cubic,Pm-3m,2.9998346,-8.991754038,-3.10516652,0.091456824,FALSE,6.549860164,1.9039,FALSE,60.56654511,,
mp-19281,LaCrO3,20,La1 Cr1 O3,5.50572244,5.51974573,7.78598881,90,90,90.00033228,ortho,Pnma,12.0000006,-9.083210863,-3.196623345,0,TRUE,6.706217884,2.3706,TRUE,236.6176631,,
mp-19357,LaCrO3,10,La1 Cr1 O3,5.457200572,5.457200045,5.457496814,61.13442931,61.13443016,61.13540773,trig,R-3c,6.0000003,-9.079683344,-3.193095826,0.003527518,FALSE,6.731708244,0,FALSE,117.8608421,,
mp-10328,LaCrS3,20,La1 Cr1 S3,3.81736164,7.90286332,13.17595561,90,90,90,ortho,Pnma,11.9997785,-7.160736413,-1.759909758,0,TRUE,4.797413951,0,FALSE,397.4933789,,
mp-19861,LaCrSb3,20,La1 Cr1 Sb3,6.32443647,6.2188672,13.38310124,90.00050104,89.99959866,90.00051474,ortho,Pbcm,11.5539986,-25.02492951,-0.637515551,0.002318739,FALSE,7.018362599,0,FALSE,526.3684867,,
mp-1105933,LaCrSe3,20,La1 Cr1 Se3,3.99881852,8.23863144,13.8322711,90,90,90,ortho,Pnma,11.9995472,-6.588914989,-1.573557187,0,TRUE,6.235207302,0,FALSE,455.701294,,
mp-1076070,LaCuO3,5,La1 Cu1 O3,3.871669,3.871669,3.871669,90,90,90,cubic,Pm-3m,0.0004336,-7.175454064,-2.399634706,0.024221094,FALSE,7.16596855,0,FALSE,58.03562468,,
mp-3474,LaCuO3,10,La1 Cu1 O3,5.410692901,5.410693142,5.410692558,60.98872651,60.98872654,60.9887221,trig,R-3c,0.0002801,-7.199675158,-2.4238558,0,TRUE,7.264223279,0,FALSE,114.5012881,,
mp-756272,LaDyO3,20,La1 Dy1 O3,5.941605,6.1279,8.576976,90,90,90,ortho,Pna2_1,0.0003784,-8.779369334,-3.899716204,0.040771145,FALSE,7.431678447,4.4015,FALSE,312.2839333,,
mp-7538,LaErO3,20,La1 Er1 O3,5.877087,6.076924,8.514153,90,90,90,ortho,Pnma,1.64E-05,-8.808138028,-3.938616242,0.027895266,FALSE,7.736143143,4.4376,FALSE,304.0796627,,
mp-1200571,LaErS3,40,La1 Er1 S3,4.00156755,11.07649514,21.61047509,78.6836308,90,90,mono,P2_1/m,0,-6.827999507,-2.444238584,0.003274833,FALSE,5.690925675,0.76,TRUE,939.2266312,,
mp-558977,LaErS3,60,La1 Er1 S3,3.99160695,16.45025474,21.4033903,90,90,90,ortho,Pnma,2.70E-05,-6.83127434,-2.447513417,0,TRUE,5.704815483,1.1359,TRUE,1405.409772,,
mp-19743,LaFeGe3,5,La1 Fe1 Ge3,4.404815049,4.404815363,5.843441239,112.1419508,112.1419425,89.99999943,tet,I4mm,1.1815699,-5.98536181,-0.530339434,0,TRUE,7.143409789,0,FALSE,95.92833916,,
mp-1078634,LaFeO3,10,La1 Fe1 O3,5.427511549,5.423071091,5.434553664,61.10598371,60.84843943,60.8041781,trig,R-3c,6.0000002,-8.50290807,-2.852925804,0,TRUE,6.98296223,1.9509,FALSE,115.4506173,,
mp-1181002,LaFeO3,20,La1 Fe1 O3,4.046154304,6.759937138,11.06507041,89.99330492,89.99916333,90.02750032,ortho,Pnma,19.9997307,-8.39616045,-2.746178184,0.106747621,FALSE,5.327540021,1.2424,FALSE,302.6489887,,
mp-22590,LaFeO3,20,La1 Fe1 O3,5.600805,5.661924,7.944671,90,90,90,ortho,Pnma,20.0000001,-8.475136048,-2.825153782,0.027772022,FALSE,6.399934701,1.4334,FALSE,251.9361017,,
mp-552676,LaFeO3,5,La1 Fe1 O3,3.957177,3.957177,3.957177,90,90,90,cubic,Pm-3m,4.9999528,-8.372899576,-2.72291731,0.130008494,FALSE,6.505033358,0.8484,FALSE,61.96642318,,
mp-605340,LaFeO3,20,La1 Fe1 O3,5.662336,6.452887,9.124399,90,90,90,ortho,Pmn2_1,20.0003791,-8.211015185,-2.561032919,0.291892886,FALSE,4.836286084,1.766,FALSE,333.3910715,,
mp-1222853,LaGa3Cu,5,La1 Ga3 Cu1,6.059352814,6.059352814,6.059352814,138.9023299,138.9023299,59.52381072,tet,I-4m2,4.80E-06,-15.57668777,-0.592706955,0,TRUE,7.181441621,0,FALSE,95.17752941,,
mp-1223040,LaGa3Ni,5,La1 Ga3 Ni1,4.187477,4.187477,6.10570018,69.94541032,69.94541032,90,tet,I-4m2,0.0014136,-4.505865304,-0.545778934,0.03819669,FALSE,7.214002509,0,FALSE,93.63095429,,
mp-1222842,LaGa3Pd,5,La1 Ga3 Pd1,6.125493243,6.125493243,6.125493243,138.8922131,138.8922131,59.53924373,tet,I-4m2,5.00E-07,-18.17882194,-0.772109603,0,TRUE,7.672337676,0,FALSE,98.3671281,,
mp-1222794,LaGa3Pt,5,La1 Ga3 Pt1,6.099497298,6.099497298,6.099497298,138.6468173,138.6468173,59.91379808,tet,I-4m2,0,-4.766798436,-0.748512738,0,TRUE,9.198926232,0,FALSE,98.04794995,,
mp-1078871,LaGaO3,10,La1 Ga1 O3,5.529890124,5.529890124,5.529890516,60.78512786,60.78512786,60.7851261,trig,R3c,0.0003385,-7.653481303,-3.091884075,0.038595358,FALSE,7.003612573,3.3682,FALSE,121.6910863,,
mp-1097026,LaGaO3,5,La1 Ga1 O3,3.913456,3.913456,3.913456,90,90,90,cubic,Pm-3m,6.70E-06,-7.595752594,-3.034155365,0.096324067,FALSE,7.109998681,3.3659,FALSE,59.93511816,,
mp-1180739,LaGaO3,20,La1 Ga1 O3,5.546311,5.594213,7.850523,90,90,90,ortho,Pnma,0.0002528,-7.6545309,-3.092933671,0.037545762,FALSE,6.997921568,3.2035,FALSE,243.5801013,,
mp-3336,LaGaO3,10,La1 Ga1 O3,5.52859349,5.52859349,5.52859264,60.79416365,60.79416365,60.79416118,trig,R-3c,0.0002577,-7.654005623,-3.092408395,0.038071038,FALSE,7.007147124,3.3802,FALSE,121.6297028,"{'voigt': 310565302064813.44, 'reuss': 203.508, 'vrh': 155282651032508.47}","{'voigt': -1.429780315244239e+16, 'reuss': 2712.217, 'vrh': -7148901576219842.0}"
mp-556983,LaGaO3,10,La1 Ga1 O3,5.560039029,5.560039029,5.560039029,120.2407756,119.5963881,90.14198201,ortho,Imma,5.16E-05,-7.654491902,-3.092894673,0.037584759,FALSE,7.004010502,3.1939,FALSE,121.6841725,,
mp-5837,LaGaO3,20,La1 Ga1 O3,5.559203,5.588688,7.878575,90,90,90,ortho,Pnma,0.0006026,-7.659527258,-3.09793003,0.032549403,FALSE,6.963712067,3.3483,FALSE,244.7766978,,
mp-9831,LaGaO3,5,La1 Ga1 O3,4.599907,4.599907,4.599907,90,90,90,cubic,Pm-3m,2.0005082,-6.24826148,-1.686664251,1.443815181,FALSE,4.378282016,0,FALSE,97.33009648,,
mp-1201646,LaGaS3,60,La1 Ga1 S3,6.07583879,10.45074162,22.04748482,90,90,90,ortho,Pna2_1,1.00E-07,-14.73790363,-1.679392954,0.004735787,FALSE,4.338767128,2.1506,FALSE,1399.949614,,
mp-4816,LaGaS3,60,La1 Ga1 S3,10.57888155,10.38992345,12.88081913,81.2740084,90,90,mono,P2_1/c,0,-14.74263942,-1.68412874,0,TRUE,4.340496067,2.2366,TRUE,1399.391975,,
mp-20910,LaGe3Ir,5,La1 Ge3 Ir1,4.447233155,4.447233477,5.950567292,111.9428407,111.9428412,90.00000202,tet,I4mm,0.000227,-6.257177966,-0.728472996,0,TRUE,9.124986628,0,FALSE,99.91318429,,
mp-1069898,LaGe3Os,5,La1 Ge3 Os1,5.984121876,5.984121876,5.984121876,136.3558094,136.3558094,63.43072536,tet,I4mm,2.00E-07,-6.530957878,-0.524466258,0,TRUE,9.015968972,0,FALSE,100.7553356,,
mp-13123,LaGe3Rh,5,La1 Ge3 Rh1,4.432189988,4.432189992,5.942181117,111.8725895,111.8725906,89.99589559,tet,I4mm,2.80E-06,-5.995537766,-0.761658058,0,TRUE,7.694293352,0,FALSE,99.21654932,,
mp-1068387,LaGe3Ru,5,La1 Ge3 Ru1,5.962249337,5.962249337,5.962249337,136.3116692,136.3116692,63.49885603,tet,I4mm,0.0001423,-6.249980606,-0.634081964,0,TRUE,7.61803307,0,FALSE,99.80966339,,
mp-756166,LaHoO3,20,La1 Ho1 O3,5.883519,6.075524,8.575969,90,90,90,ortho,Pnma,0.000139,-8.792727639,-3.917213722,0.03453046,FALSE,7.623295924,4.3855,FALSE,306.5519645,,
mp-770413,LaHoO3,20,La1 Ho1 O3,6.085854,6.033146,8.510631507,89.85699993,90,90,mono,P2_1/c,0.0002317,-8.746057896,-3.870543979,0.081200203,FALSE,7.478613402,4.236,TRUE,312.4825707,,
mp-1200097,LaHoS3,40,La1 Ho1 S3,4.01058461,11.10123958,21.67602939,101.3099937,90,90,mono,P2_1/m,0,-19.80766109,-2.461436819,0,TRUE,5.615525156,0.7588,TRUE,946.3289522,,
mp-1080184,LaIO3,10,La1 I1 O3,10.83855235,10.83855235,4.484834187,87.82126115,87.82126115,21.87010853,mono,C2/m,0.0012246,-6.521473916,-2.260693369,0.098233926,FALSE,5.314343056,0.7893,TRUE,196.1072781,,
mp-11623,LaInO3,20,La1 In1 O3,5.73615203,5.95376221,8.25417615,90,90,90,ortho,Pnma,0,-7.436104474,-2.928291701,0.006706452,FALSE,7.109347134,2.7507,TRUE,281.8940254,,
mp-1222954,LaLuC3,20,La1 Lu1 C3,7.290215705,7.290215705,7.290215705,109.4712206,109.4712206,109.4712206,cubic,I2_13,0.0162796,-7.579055663,-0.150317456,0.114051838,FALSE,7.792188654,0,FALSE,298.262906,,
mp-22220,LaLuO3,20,La1 Lu1 O3,5.78622784,5.97112351,8.32190561,90,90,90,ortho,Pnma,0,-8.848796716,-3.988481201,0.011375044,FALSE,8.359650151,4.4525,FALSE,287.524178,"{'voigt': 146.867, 'reuss': 145.232, 'vrh': 146.049}","{'voigt': 72.243, 'reuss': 71.669, 'vrh': 71.956}"
mp-1106374,LaLuS3,20,La1 Lu1 S3,6.70515075,7.33021724,9.86327545,90,90,90,ortho,Pnma,0,-20.84749452,-2.461562992,0,TRUE,5.61846725,2.2322,TRUE,484.7820757,,
mp-1184964,LaMgO3,5,La1 Mg1 O3,3.945789,3.945789,3.945789,90,90,90,cubic,Pm-3m,1.0015996,-7.22541901,-2.943346983,0.209941145,FALSE,5.708989786,0,FALSE,61.43297867,,
mp-1232327,LaMgS3,20,La1 Mg1 S3,8.006753203,11.55862,7.958031464,90,129.2067296,90,mono,C2/m,3.999672,-5.375916514,-1.579605349,0.403210427,FALSE,3.019194916,0.2009,FALSE,570.6858007,,
mp-1232358,LaMgS3,30,La1 Mg1 S3,6.996812,6.996811188,17.617833,90,90,120.0000038,trig,R-3,5.1027676,-5.431638017,-1.635326852,0.347488924,FALSE,3.46015867,0,FALSE,746.9361231,,
mp-1238931,LaMgS3,10,La1 Mg1 S3,7.083251954,7.083251954,4.995139842,82.43688943,82.43688943,106.7716649,mono,C2/m,0.0001342,-5.497116522,-1.700805357,0.282010419,FALSE,3.680989554,0,FALSE,234.0419122,,
mp-1232143,LaMgSe3,10,La1 Mg1 Se3,7.36619708,7.36619708,6.817848913,76.79524257,76.79524257,113.9563207,mono,C2/m,0.0006583,-4.841762803,-1.430920492,0.40255269,FALSE,4.328970919,0,FALSE,306.9393942,,
mp-989554,LaMnN3,10,La1 Mn1 N3,6.430161004,6.430161004,5.327197,90,90,143.3829383,ortho,Cmcm,9.65E-05,-15.19142481,-0.828551433,0.013571642,FALSE,5.962294419,0,FALSE,131.3792039,"{'voigt': 136.407, 'reuss': 134.685, 'vrh': 135.546}","{'voigt': 53.939, 'reuss': 44.283, 'vrh': 49.111}"
mp-989589,LaMnN3,10,La1 Mn1 N3,5.907698464,5.907698464,7.03046776,61.8186417,61.8186417,41.23690212,mono,C2/m,3.9420251,-15.20499645,-0.842123075,0,TRUE,5.609525084,0,FALSE,139.6413212,,
mp-1180700,LaMnO3,20,La1 Mn1 O3,5.563543,5.565174,8.031702,90,90,90,ortho,Pnma,16,-8.755401491,-2.967020409,0.168244392,FALSE,6.459553801,1.1014,FALSE,248.6782388,,
mp-1180932,LaMnO3,20,La1 Mn1 O3,4.137008,5.807498,12.90489,90,90,90,ortho,Pnma,16.0044408,-8.293129758,-2.504748675,0.630516126,FALSE,5.180963899,0.5347,FALSE,310.0485729,,
mp-1205375,LaMnO3,10,La1 Mn1 O3,3.99551,5.564051655,5.565343655,90.05558971,89.99977197,90.00026298,tet,P4/mbm,7.9998641,-8.75642981,-2.968048728,0.167216073,FALSE,6.491650791,0,FALSE,123.7243433,,
mp-1272373,LaMnO3,20,La1 Mn1 O3,5.492280275,5.601657288,8.08411,90.00010077,90.00006675,89.96349915,ortho,Pnnm,16.0017743,-8.750783121,-2.962402039,0.172862762,FALSE,6.458608356,0.5803,FALSE,248.7146416,,
mp-1272996,LaMnO3,20,La1 Mn1 O3,5.550811001,5.714156002,7.882481,90.00002457,89.99990478,90.0028353,ortho,Pbam,16.0025726,-8.748204526,-2.959823443,0.175441358,FALSE,6.424936466,0.5975,FALSE,250.0181085,,
mp-1273223,LaMnO3,20,La1 Mn1 O3,3.939325,8.823933158,7.903473005,63.3907316,90.00055181,89.99925949,ortho,Cmmm,1.0212013,-8.687858434,-2.899477352,0.235787449,FALSE,6.539748626,0,FALSE,245.6287779,,
mp-1273769,LaMnO3,20,La1 Mn1 O3,6.847261829,6.847318954,6.8746787,70.42832012,69.53676264,108.220045,mono,C2/m,15.999964,-8.747781414,-2.959400331,0.17586447,FALSE,6.463251287,0,FALSE,248.5359754,,
mp-1278019,LaMnO3,20,La1 Mn1 O3,5.574875833,5.574877953,8.826724432,71.5922722,71.59269584,89.99493466,tet,I4/mmm,16.0022643,-8.706018016,-2.917636934,0.217627867,FALSE,6.544321107,0,FALSE,245.4571584,,
mp-1278230,LaMnO3,20,La1 Mn1 O3,5.544864958,7.984852816,5.652318173,89.38115012,90.04509009,91.49769421,tri,P-1,16.0019554,-8.777056274,-2.988675191,0.14658961,FALSE,6.42139805,0,FALSE,250.1558773,,
mp-1278738,LaMnO3,10,La1 Mn1 O3,3.947522,5.568348565,5.568344323,90.01428969,89.99956836,90.00051385,tet,P4/mmm,7.9999577,-8.708050088,-2.919669006,0.215595795,FALSE,6.561955274,0,FALSE,122.3987665,,
mp-1279320,LaMnO3,20,La1 Mn1 O3,4.02144,7.889233527,7.822822964,89.61046359,89.99960279,89.99956265,tet,P4/m,16.0021897,-8.752428543,-2.96404746,0.171217341,FALSE,6.472475763,0,FALSE,248.1817656,,
mp-1281528,LaMnO3,20,La1 Mn1 O3,3.966672,11.07224004,5.69911702,89.99010164,90.00080843,89.99998969,ortho,Pmc2_1,16.0001685,-8.746746991,-2.958365909,0.176898892,FALSE,6.417574982,0.0716,FALSE,250.3048998,,
mp-1283081,LaMnO3,10,La1 Mn1 O3,5.582734739,5.581586269,5.582722011,60.00796122,89.97534049,119.9920556,cubic,Fm-3m,7.9999106,-8.698895915,-2.910514833,0.224749968,FALSE,6.529256936,0.6151,FALSE,123.0117361,,
mp-17554,LaMnO3,20,La1 Mn1 O3,5.87143,7.777420048,5.585996149,90.10098825,89.99992001,89.9998483,ortho,Pnma,16.0083734,-8.798112388,-3.009731306,0.125533495,FALSE,6.29739453,0,FALSE,255.0817572,,
mp-19025,LaMnO3,5,La1 Mn1 O3,3.94437,3.94437,3.94437,90,90,90,cubic,Pm-3m,4.000871,-8.717243282,-2.9288622,0.206402601,FALSE,6.544061475,0,FALSE,61.3667242,,
mp-19157,LaMnO3,10,La1 Mn1 O3,5.477482623,5.546438072,5.546199786,60.0637409,59.73993498,59.73897774,mono,C2/c,8.0128607,-8.785513627,-2.997132545,0.138132256,FALSE,6.764708522,0,FALSE,118.7302053,,
mp-19168,LaMnO3,10,La1 Mn1 O3,5.563969612,5.563969432,5.563969695,61.04400996,61.04401257,61.04400385,trig,R-3c,8.0000716,-8.782970226,-2.994589144,0.140675657,FALSE,6.442869483,0,FALSE,124.6611053,,