mp_id,composition,a_edge (angstrom),b_edge (angstrom),c_edge (angstrom),alpha_ang (deg),beta_ang (deg),gamma_ang (deg),crystal_system,space_group,formation_energy (eV/atom),energy_above_hull (eV/atom),band_gap (eV),A_site,B_site,X_site
mp-5899,Nd1 Al1 O3,5.285252518,5.285251644,5.285252471,60.57397474,60.57397828,60.57397833,trig,R-3c,-3.672470181,0.0,4.354,Nd,Al,O
mp-13514,Nd1 B1 O3,6.29114009,6.584614101,6.572748449,93.73771251,108.4466441,108.2737855,tri,P-1,-3.465548756,0.001357567,5.0694,Nd,B,O
mp-7238,Nd1 B1 O3,5.0493033,5.72881457,8.09798399,90.0,90.0,90.0,ortho,Pnma,-3.466906322,0.0,4.6987,Nd,B,O
mp-10120,Nd1 B1 Pd3,4.383158,4.383158,4.383158,90.0,90.0,90.0,cubic,Pm-3m,-0.557739431,0.111334662,0.0,Nd,B,Pd
mp-11597,Nd1 B1 Pt3,4.02110246,4.02110246,5.08640514,90.0,90.0,90.0,tet,P4mm,-0.867115503,0.0,0.0,Nd,B,Pt
mp-3591,Nd1 B1 Rh3,4.23316728,4.2331642,4.23312733,90.0,90.0,90.0,cubic,Pm-3m,-0.696287231,0.0,0.0,Nd,B,Rh
mp-1188683,Nd1 B1 S3,6.01172313,7.59857487,8.92959887,90.0,90.0,90.0,ortho,Pna2_1,-1.546099794,0.000999158,2.3963,Nd,B,S
mp-975579,Nd1 Be1 O3,3.660158,3.660158,3.660158,90.0,90.0,90.0,cubic,Pm-3m,-2.870313715,0.26662336,0.0,Nd,Be,O
mp-974740,Nd1 Bi1 O3,4.435676,4.435676,4.435676,90.0,90.0,90.0,cubic,Pm-3m,-1.885398848,0.82623843,0.0,Nd,Bi,O
mp-14625,Nd1 Co1 Ge3,5.771051856,5.771051856,5.771051856,136.3454173,136.3454173,63.44676443,tet,I4mm,-0.562235491,0.0,0.0,Nd,Co,Ge
mp-20031,Nd1 Co1 O3,3.801945,3.801945,3.801945,90.0,90.0,90.0,cubic,Pm-3m,-2.442810628,0.078158744,0.7914,Nd,Co,O
mp-22599,Nd1 Co1 O3,5.3544196,5.36020413,7.57320125,90.0,90.0,90.00021186,ortho,Pnma,-2.520969372,0.0,0.0,Nd,Co,O
mp-570956,Nd1 Co1 Sb3,6.202553,12.147865,12.756951,90.0,90.0,90.0,ortho,Pbcm,-0.641829573,0.010133488,0.0,Nd,Co,Sb
mp-1069204,Nd1 Co1 Si3,5.602440721,5.602440721,5.602440721,136.9054184,136.9054184,62.58360701,tet,I4mm,-0.613586899,0.0,0.0,Nd,Co,Si
mp-13008,Nd1 Cr1 Ge3,6.165282144,6.165282144,5.750085,90.0,90.0,120.0000015,hex_,P6_3/mmc,-0.403187484,0.035463481,0.0,Nd,Cr,Ge
mp-19062,Nd1 Cr1 O3,3.90191,3.90191,3.90191,90.0,90.0,90.0,cubic,Pm-3m,-2.998728589,0.14311416,1.904,Nd,Cr,O
mp-19269,Nd1 Cr1 O3,5.42096311,5.53422111,7.71471539,90.0,90.0,89.99997866,ortho,Pnma,-3.141842748,0.0,2.54,Nd,Cr,O
mp-15931,Nd1 Cr1 S3,3.78190129,7.81500959,13.05412393,90.0,90.0,90.0,ortho,Pnma,-1.684612532,0.0,0.0,Nd,Cr,S
mp-1209908,Nd1 Cr1 Sb3,6.25507165,6.19324407,13.16302585,90.0,90.0,90.0,ortho,Pbcm,-0.588394533,0.012437006,0.0,Nd,Cr,Sb
mp-864797,Nd1 Cr1 Se3,3.95625873,8.16611691,13.72165637,90.0,90.0,90.0,ortho,Pnma,-1.48949707,0.0,0.0,Nd,Cr,Se
mp-1173386,Nd1 Cu1 O3,5.33507122,6.34205783,7.17680555,90.0,90.0,90.0,ortho,Pnma,-2.383346919,0.0,0.123,Nd,Cu,O
mp-1180433,Nd1 Fe1 O3,3.513339,6.253102,13.062496,90.0,90.0,90.0,ortho,Pnma,-2.270245335,0.506160635,1.428,Nd,Fe,O
mp-20407,Nd1 Fe1 O3,5.46086797,5.6389052,7.77694011,90.0,90.0,90.0,ortho,Pnma,-2.77640597,0.0,1.7349,Nd,Fe,O
mp-601267,Nd1 Fe1 O3,4.523317,5.125559,12.14826,90.0,90.0,90.0,ortho,Pnma,-2.132707371,0.643698599,0.0,Nd,Fe,O
mp-1201926,Nd1 Fe1 Sb3,6.147344,12.133969,12.725729,90.0,90.0,90.0,ortho,Pbcm,-0.600566965,0.018744907,0.0,Nd,Fe,Sb
mp-569211,Nd1 Fe1 Sb3,6.237066,12.709238,18.491927,90.0,90.0,90.0,ortho,Pbcm,-0.583557101,0.035754771,0.0,Nd,Fe,Sb
mp-1220217,Nd1 Ga3 Ag1,6.133732836,6.133732836,6.133732836,137.3571259,137.3571259,61.88903064,tet,I4mm,-0.490320011,0.021206872,0.0,Nd,Ag,Ga
mp-1220156,Nd1 Ga3 Au1,4.298089558,4.298089928,6.18597648,69.75298233,69.75296865,90.12888273,tet,I4mm,-0.599154498,0.0,0.0,Nd,Au,Ga
mp-1220168,Nd1 Ga3 Cu1,6.046518446,6.046518446,6.046518446,139.760442,139.760442,58.21721442,tet,I-4m2,-0.574770358,0.0,0.0,Nd,Cu,Ga
mp-1220163,Nd1 Ga3 Ni1,6.087049592,6.087049592,6.087049592,140.1117794,140.1117794,57.68361684,tet,I-4m2,-0.535377592,0.044165609,0.0,Nd,Ni,Ga
mp-1220159,Nd1 Ga3 Pd1,6.133838505,6.133838505,6.133838505,139.9066282,139.9066282,57.99509771,tet,I-4m2,-0.687125956,0.0,0.0,Nd,Pd,Ga
mp-1220160,Nd1 Ga3 Pt1,6.147883693,6.147883693,6.147883693,140.1929162,140.1929162,57.56049986,tet,I-4m2,-0.724150048,0.0,0.0,Nd,Pt,Ga
mp-3196,Nd1 Ga1 O3,5.471236,5.615867,7.801683,90.0,90.0,90.0,ortho,Pnma,-3.05371946,0.033597413,3.4525,Nd,Ga,O
mp-9834,Nd1 Ga1 O3,4.563814,4.563814,4.563814,90.0,90.0,90.0,cubic,Pm-3m,-1.6210627,1.466254173,0.0,Nd,Ga,O
mp-975347,Nd1 Ge1 O3,3.96845,3.96845,3.96845,90.0,90.0,90.0,cubic,Pm-3m,-2.491413124,0.455508572,0.0,Nd,Ge,O
mp-1212693,Nd1 In3 Pt1,9.867339,9.867339,9.867339,90.0,90.0,90.0,cubic,Pm-3n,-0.581288502,0.024338938,0.0,Nd,Pt,In
mp-1186316,Nd1 In1 O3,4.155854,4.155854,4.155854,90.0,90.0,90.0,cubic,Pm-3m,-2.462961132,0.424846233,1.6468,Nd,In,O
mp-755138,Nd1 In1 O3,5.63595378,5.94569456,8.17509696,90.0,90.0,90.0,ortho,Pnma,-2.87308432,0.014723044,2.6533,Nd,In,O
mp-1209937,Nd1 Lu1 O3,5.731661,5.979581,8.327143,90.0,90.0,90.0,ortho,Pnma,-3.92999273,0.022672726,4.8869,Nd,Lu,O
mp-1080801,Nd1 Lu1 S3,6.558566804,6.558566804,9.46813733,90.0,90.0,145.7493798,ortho,Cmcm,-2.393227956,0.0,0.8052,Nd,Lu,S
mp-1205870,Nd1 Lu1 S3,6.653053663,6.653053663,9.866434,90.0,90.0,146.9049126,ortho,Cmcm,-2.256186449,0.137041507,0.7005,Nd,Lu,S
mp-13327,Nd1 Lu1 Se3,6.828910913,6.828910913,9.91660609,90.0,90.0,145.8286919,ortho,Cmcm,-2.187056561,0.0,0.4956,Nd,Lu,Se
mp-975521,Nd1 Mg1 O3,3.908802,3.908802,3.908802,90.0,90.0,90.0,cubic,Pm-3m,-2.833164049,0.277954373,0.0,Nd,Mg,O
mp-1232174,Nd1 Mg1 S3,7.808633149,11.612948,7.675800975,90.0,127.1785527,90.0,mono,C2/m,-1.520809098,0.387334056,0.2931,Nd,Mg,S
mp-1232282,Nd1 Mg1 Se3,7.366642325,7.366642325,6.852079782,76.28043122,76.28043122,115.815686,mono,C2/m,-1.372877775,0.380663732,0.0,Nd,Mg,Se
mp-1232357,Nd1 Mg1 Se3,7.035993,7.035993528,19.649052,90.0,90.0,120.0000022,trig,R-3,-1.467696156,0.285845351,0.0,Nd,Mg,Se
mp-1182197,Nd1 Mn1 O3,14.392943,14.078227,19.90936595,87.88079187,90.0,90.0,mono,P2_1/c,1.007575711,3.971054523,0.0,Nd,Mn,O
mp-1189476,Nd1 Mn1 O3,5.499704,5.657811,7.900170967,89.42924992,90.0,90.0,mono,P2_1/c,-2.952136444,0.011342369,0.0,Nd,Mn,O
mp-20852,Nd1 Mn1 O3,5.43900702,5.59497621,7.74393852,90.0,90.0,90.0,ortho,Pnma,-2.963478812,0.0,1.898,Nd,Mn,O
mp-1079171,Nd1 Ni1 Ge3,11.0492113,11.0492113,4.17058748,90.0,90.0,158.4883357,ortho,Cmmm,-0.597557233,0.0,0.0,Nd,Ni,Ge
mp-22106,Nd1 Ni1 O3,5.38376377,5.38857796,7.604511,90.0,90.0,90.0,ortho,Pnma,-2.425266711,0.0,0.0,Nd,Ni,O