mp_id,formula,sites,composition,a_edge (angstrom),b_edge (angstrom),c_edge (angstrom),alpha_ang (deg),beta_ang (deg),gamma_ang (deg),crystal_system,space_group,total_magnetisation (bohr),energy_per_atom (eV/atom),formation_energy (eV/atom),energy_above_hull (eV/atom),stable,density (g/cc),band_gap (eV),direct_bandgap,volume (cubic-angstrom),bulk_modulus (GPa),shear_modulus (GPa)
mp-1017629,MgNiH3,5,Mg1 Ni1 H3,3.31395467,3.31395467,3.31395467,90,90,90,cubic,Pm-3m,7.00E-07,-3.771069216,-0.251848014,0.005229103,FALSE,3.924822793,0,FALSE,36.39482964,"{'voigt': 109.663, 'reuss': 109.663, 'vrh': 109.663}","{'voigt': 26.818, 'reuss': 26.807, 'vrh': 26.812}"
mp-1016843,MgOsO3,5,Mg1 Os1 O3,3.916779,3.916779,3.916779,90,90,90,cubic,Pm-3m,1.1611625,-6.913052246,-1.372708154,0.648656036,FALSE,7.255145503,0,FALSE,60.08792445,"{'voigt': 174.473, 'reuss': 174.473, 'vrh': 174.473}","{'voigt': 16.282, 'reuss': 8.103, 'vrh': 12.192}"
mp-675651,MgPS3,10,Mg1 P1 S3,6.090788279,6.088793441,7.080204607,81.98286681,73.80104249,59.98799497,mono,C2/m,0,-4.94403728,-1.051832831,0,TRUE,2.303994843,2.7986,FALSE,218.3408528,,
mp-30943,MgPSe3,10,Mg1 P1 Se3,7.910538789,7.910538605,7.910539209,47.91244771,47.91244183,47.91244234,trig,R-3,0,-4.388379354,-0.881643759,0,TRUE,3.885600648,2.0382,FALSE,249.7122488,,
mp-976722,MgPbO3,5,Mg1 Pb1 O3,3.980508,3.980508,3.980508,90,90,90,cubic,Pm-3m,2.0071721,-5.531777046,-1.494377026,0.500734861,FALSE,7.3590267,0,FALSE,63.06893585,,
mp-1185941,MgReO3,5,Mg1 Re1 O3,3.922568,3.922568,3.922568,90,90,90,cubic,Pm-3m,0.0019014,-7.510970314,-1.726476866,0.649838266,FALSE,7.112386319,0,FALSE,60.35474832,,
mp-1016929,MgRhO3,5,Mg1 Rh1 O3,3.900215,3.900215,3.900215,90,90,90,cubic,Pm-3m,1.2406907,-5.99753086,-1.22979868,0.716897825,FALSE,4.903871935,0,FALSE,59.32881099,,
mp-1016829,MgRuO3,5,Mg1 Ru1 O3,3.883346,3.883346,3.883346,90,90,90,cubic,Pm-3m,2.01969,-6.605691234,-1.45594012,0.633980687,FALSE,4.91601049,0,FALSE,58.56231842,"{'voigt': 161.797, 'reuss': 161.797, 'vrh': 161.797}","{'voigt': 56.868, 'reuss': 29.966, 'vrh': 43.417}"
mp-769322,MgSO3,40,Mg1 S1 O3,11.9919,5.345052,8.093435278,80.11213058,90,90,mono,P2_1/c,0.0004819,-6.396531487,-2.273988968,0.057395501,FALSE,2.712901207,4.9221,TRUE,511.0616575,,
mp-769347,MgSO3,20,Mg1 S1 O3,8.767642,4.354949,6.509737818,87.33532098,90,90,mono,P2_1/c,2.12E-05,-6.380499914,-2.257957395,0.073427074,FALSE,2.79201501,5.0797,FALSE,248.2901744,,
mp-769397,MgSO3,30,Mg1 S1 O3,7.800034664,7.800034664,7.800033921,109.4073278,109.4073278,109.4073352,trig,R-3,0.0011818,-6.405517005,-2.282974486,0.048409983,FALSE,2.839734892,5.0094,FALSE,366.1767312,,
mp-1342178,MgSbO3,20,Mg1 Sb1 O3,7.950041,5.549974,5.565261855,88.18962856,90,90,mono,P2_1/m,0.0090651,-6.294361627,-2.173690773,0.198446434,FALSE,5.251981473,0.5657,TRUE,245.4308163,,
mp-1347225,MgSbO3,20,Mg1 Sb1 O3,5.542728,5.46965,9.717378708,56.22988207,90,90,mono,P2_1/c,0.0003354,-6.334188657,-2.213517803,0.158619403,FALSE,5.263511708,1.9972,FALSE,244.8931761,,
mp-1232175,MgScS3,10,Mg1 Sc1 S3,6.850932396,6.850932396,6.796515386,75.33910699,75.33910699,119.2727304,mono,C2/m,1.9931835,-5.549591523,-1.473987958,0.317098725,FALSE,2.281295228,0.0801,FALSE,240.868435,,
mp-1232226,MgScS3,30,Mg1 Sc1 S3,6.45091,6.450910054,17.54988,90,90,119.9999997,trig,R-3,3.4823792,-5.652508107,-1.576904542,0.214182141,FALSE,2.606368895,0,FALSE,632.4799367,,
mp-1232150,MgScSe3,10,Mg1 Sc1 Se3,7.264376125,7.264376125,6.792146623,76.31356707,76.31356707,121.8543174,mono,C2/m,2.06E-05,-5.028159294,-1.338024583,0.291540521,FALSE,3.823435701,0,FALSE,265.9173497,,
mp-1232171,MgScSe3,10,Mg1 Sc1 Se3,7.23217795,7.23217795,7.232178324,56.17814524,56.17814524,56.17814611,trig,R-3,0.0496028,-5.1381339,-1.447999189,0.181565915,FALSE,4.170007604,0,FALSE,243.8167948,,
mp-12271,MgSeO3,20,Mg1 Se1 O3,5.01646551,5.91728012,7.64763004,90,90,90,ortho,Pnma,0,-6.018788838,-2.024735936,0,TRUE,4.425838297,4.0013,FALSE,227.0109625,,
mp-1016928,MgSiO3,5,Mg1 Si1 O3,3.527218,3.527218,3.527218,90,90,90,cubic,Pm-3m,5.40E-06,-7.143716374,-2.763782162,0.467255233,FALSE,3.79871771,2.9292,FALSE,43.88306027,"{'voigt': 230.404, 'reuss': 230.404, 'vrh': 230.404}","{'voigt': 141.839, 'reuss': 128.235, 'vrh': 135.037}"
mp-1020115,MgSiO3,80,Mg1 Si1 O3,8.964748,5.279397,18.68860856,84.76841032,90,90,mono,Pc,6.27E-05,-7.598188193,-3.218253981,0.012783414,FALSE,3.028080835,4.7633,FALSE,880.818537,,
mp-1020117,MgSiO3,80,Mg1 Si1 O3,8.921515,5.337009,18.77323364,85.55034329,90,90,mono,Pc,9.49E-05,-7.5998181,-3.219883888,0.011153507,FALSE,2.99287976,4.7652,TRUE,891.1783783,,
mp-1020118,MgSiO3,80,Mg1 Si1 O3,5.129915,8.952562,18.53411,90,90,90,ortho,Pca2_1,0.0001084,-7.59248536,-3.212551148,0.018486247,FALSE,3.133463698,4.8006,TRUE,851.1953505,,
mp-1020123,MgSiO3,80,Mg1 Si1 O3,8.990492,5.198045,18.80092451,83.89327501,90,90,mono,P2/c,1.20E-05,-7.590314133,-3.21037992,0.020657475,FALSE,3.05297079,4.6316,TRUE,873.6374877,,
mp-1020124,MgSiO3,80,Mg1 Si1 O3,8.982055,5.25606,18.53142194,89.77495837,90,90,mono,P2_1/c,5.30E-06,-7.600779998,-3.220845786,0.010191609,FALSE,3.048684561,4.8602,FALSE,874.8657585,,
mp-1020125,MgSiO3,80,Mg1 Si1 O3,5.331131,8.92094,18.707792,90,90,90,ortho,Pca2_1,0.0001307,-7.599809979,-3.219875767,0.011161628,FALSE,2.99779137,4.831,TRUE,889.7182633,,
mp-1020361,MgSiO3,80,Mg1 Si1 O3,8.900028,5.352521,18.64141193,88.79596128,90,90,mono,P2/c,6.04E-05,-7.600457427,-3.220523215,0.01051418,FALSE,3.004147518,4.7926,FALSE,887.8358054,,
mp-1180468,MgSiO3,20,Mg1 Si1 O3,7.606271035,7.606271035,6.074523218,77.31131133,77.31131133,102.3459483,mono,C2/c,3.9996038,-5.944687072,-1.56475286,1.666284536,FALSE,2.073647302,0.4428,FALSE,321.5577847,,
mp-1180703,MgSiO3,20,Mg1 Si1 O3,7.041038791,7.764573903,7.764573047,46.24086938,49.59322891,49.59323605,mono,C2/c,0.0005312,-7.20848561,-2.828551398,0.402485997,FALSE,3.065839293,2.2265,TRUE,217.4926241,,
mp-1181528,MgSiO3,40,Mg1 Si1 O3,6.212832433,11.40838,7.793944631,90,110.669087,90,mono,P2_1/c,0.0036978,-7.310500968,-2.930566756,0.30047064,FALSE,2.580160385,3.0501,TRUE,516.8651039,,
mp-1182302,MgSiO3,40,Mg1 Si1 O3,5.129543401,15.171365,6.41986247,90,87.41962911,90,mono,P2_1/c,9.54E-05,-7.316306207,-2.936371995,0.2946654,FALSE,2.671993516,3.2732,TRUE,499.101086,,
mp-1195746,MgSiO3,40,Mg1 Si1 O3,8.896421,5.22871,9.406712594,86.05147106,90,90,mono,P2/c,0.0013207,-7.589348493,-3.209414281,0.021623114,FALSE,3.054979234,4.4998,TRUE,436.5315648,,
mp-1196002,MgSiO3,80,Mg1 Si1 O3,8.940908,5.263367,18.62369252,89.42909378,90,90,mono,P2/c,2.01E-05,-7.594132941,-3.214198729,0.016838666,FALSE,3.043437575,4.5845,TRUE,876.3740559,,
mp-1199778,MgSiO3,40,Mg1 Si1 O3,5.385009,8.832554,9.393232,90,90,90,ortho,Pna2_1,0.0011348,-7.599094954,-3.219160742,0.011876653,FALSE,2.98494361,4.6372,TRUE,446.7738892,,
mp-1256030,MgSiO3,40,Mg1 Si1 O3,4.93884,8.845569,9.671739,90,90,90,ortho,Pnma,0.000717,-7.169120509,-2.789186297,0.441851098,FALSE,3.156229794,1.0261,TRUE,422.5278109,,
mp-3470,MgSiO3,40,Mg1 Si1 O3,8.7965239,5.164353739,9.377797698,76.66814828,90,90,mono,P2_1/c,0,-7.603293569,-3.223359357,0.007678038,FALSE,3.2170696,4.7797,TRUE,414.5371507,"{'voigt': 103.05, 'reuss': 92.401, 'vrh': 97.725}","{'voigt': 69.65, 'reuss': 65.192, 'vrh': 67.421}"
mp-3547,MgSiO3,20,Mg1 Si1 O3,4.830907,4.981026,6.978868,90,90,90,ortho,Pnma,0,-7.393931074,-3.013996862,0.217040533,FALSE,3.970648558,5.4155,FALSE,167.931617,,
mp-4321,MgSiO3,20,Mg1 Si1 O3,6.435026357,6.435026357,4.990837375,81.02678019,81.02678019,86.38327046,mono,C2/c,0,-7.591702607,-3.211768395,0.019269,FALSE,3.309471564,4.5304,FALSE,201.4815416,"{'voigt': 113.762, 'reuss': 89.149, 'vrh': 101.455}","{'voigt': 77.101, 'reuss': 66.592, 'vrh': 71.846}"
mp-4391,MgSiO3,10,Mg1 Si1 O3,2.716358,4.802127623,6.729538,90,90,106.4290968,ortho,Cmcm,0,-7.349852831,-2.969918619,0.261118776,FALSE,3.959698966,4.6425,TRUE,84.19799568,"{'voigt': 200.791, 'reuss': 197.785, 'vrh': 199.288}","{'voigt': 123.778, 'reuss': 93.979, 'vrh': 108.878}"
mp-5026,MgSiO3,40,Mg1 Si1 O3,5.31230984,8.71185874,9.26667111,90,90,90,ortho,Pbcn,0,-7.602638963,-3.222704751,0.008332644,FALSE,3.109610136,4.7421,TRUE,428.8623999,,
mp-530986,MgSiO3,160,Mg1 Si1 O3,10.04867239,10.04867239,16.39652185,89.97774463,89.97774463,70.23121932,mono,C2,0.0020062,-7.507779405,-3.127845193,0.103192202,FALSE,3.423695517,4.6987,FALSE,1558.076481,,
mp-554137,MgSiO3,40,Mg1 Si1 O3,9.061406,5.263346,9.380497699,80.60015362,90,90,mono,P2_1/c,0.0002607,-7.502439522,-3.12250531,0.108532085,FALSE,3.021422604,3.7886,TRUE,441.379787,,
mp-556940,MgSiO3,80,Mg1 Si1 O3,5.290159,9.185069,18.429241,90,90,90,ortho,Pbca,0.0007452,-7.501746133,-3.121811921,0.109225475,FALSE,2.978484282,3.9377,TRUE,895.4855821,,
mp-557803,MgSiO3,40,Mg1 Si1 O3,5.19847528,8.82304323,9.1518143,90,90,90,ortho,Pna2_1,0,-7.59833251,-3.218398298,0.012639097,FALSE,3.177037385,4.9148,TRUE,419.7605203,,
mp-5834,MgSiO3,80,Mg1 Si1 O3,5.245794,8.945396,18.449503,90,90,90,ortho,Pbca,5.08E-05,-7.603105518,-3.223171306,0.007866089,FALSE,3.080764037,4.7002,TRUE,865.755929,,
mp-5924,MgSiO3,10,Mg1 Si1 O3,5.346176294,5.346176294,5.346176811,53.189621,53.189621,53.18962004,trig,R-3,0.0001225,-7.493899267,-3.113965055,0.11707234,FALSE,3.671345043,5.7928,FALSE,90.81105493,,
mp-603907,MgSiO3,20,Mg1 Si1 O3,6.376932889,6.376932889,4.894926183,84.04629231,84.04629231,80.386135,mono,C2/c,0.000133,-7.419682396,-3.039748184,0.191289211,FALSE,3.429319202,5.0422,FALSE,194.440177,,
mp-603930,MgSiO3,20,Mg1 Si1 O3,6.659579218,6.659579218,5.307129911,73.13843529,73.13843529,81.75693793,mono,C2/c,0,-7.601560761,-3.221626549,0.009410846,FALSE,3.099698644,4.5444,FALSE,215.1168579,"{'voigt': 105.131, 'reuss': 100.844, 'vrh': 102.987}","{'voigt': 65.064, 'reuss': 61.014, 'vrh': 63.039}"
mp-642209,MgSiO3,40,Mg1 Si1 O3,4.816389,8.826494,9.591577,90,90,90,ortho,Pna2_1,0.0003598,-7.161808967,-2.781874755,0.44916264,FALSE,3.270574987,1.4453,TRUE,407.7554775,,
mp-642210,MgSiO3,40,Mg1 Si1 O3,4.870258,10.132718,10.956246,90,90,90,ortho,Pna2_1,0.0016372,-7.464681957,-3.084747745,0.14628965,FALSE,2.466517581,4.308,TRUE,540.6792459,,
mp-642216,MgSiO3,40,Mg1 Si1 O3,8.48329,4.913015,9.483557285,81.78613552,90,90,mono,P2_1/c,0.0034285,-7.485255032,-3.10532082,0.125716575,FALSE,3.408932296,5.1709,TRUE,391.2060287,,
mp-642228,MgSiO3,80,Mg1 Si1 O3,5.250414,9.199812,18.576097,90,90,90,ortho,Pbca,0.0004439,-7.40500898,-3.025074768,0.205962627,FALSE,2.972534737,3.1742,TRUE,897.2779017,,
mp-644879,MgSiO3,40,Mg1 Si1 O3,4.990599,9.063945,9.34514,90,90,90,ortho,Pbcn,0.0009703,-7.560144983,-3.180210771,0.050826625,FALSE,3.154773368,4.5951,TRUE,422.7228741,,
mp-657336,MgSiO3,40,Mg1 Si1 O3,5.095143,8.534164,9.562052,90,90,90,ortho,Pna2_1,0.0010352,-7.321491688,-2.941557476,0.289479919,FALSE,3.207417185,2.5861,FALSE,415.7846605,,
mp-657338,MgSiO3,80,Mg1 Si1 O3,5.437069,8.284873,19.581675,90,90,90,ortho,Pbca,2.93E-05,-7.477800413,-3.097866201,0.133171194,FALSE,3.023802155,4.3843,TRUE,882.0648952,"{'voigt': 72.627, 'reuss': 63.265, 'vrh': 67.946}","{'voigt': 60.979, 'reuss': 48.41, 'vrh': 54.694}"
mp-772412,MgSiO3,80,Mg1 Si1 O3,10.05341496,10.05341496,10.05341496,109.2415534,109.2415534,109.9315381,tet,I4_1/a,0.0004908,-7.52225355,-3.142319338,0.088718058,FALSE,3.410012884,4.9532,FALSE,782.1641212,,
mp-1016820,MgSnO3,5,Mg1 Sn1 O3,4.025234,4.025234,4.025234,90,90,90,cubic,Pm-3m,0.0004715,-5.963253124,-1.866468147,0.629874776,FALSE,4.863389811,1.3084,FALSE,65.21888912,"{'voigt': 154.103, 'reuss': 154.103, 'vrh': 154.103}","{'voigt': 73.738, 'reuss': 65.621, 'vrh': 69.68}"
mp-1176491,MgSnO3,10,Mg1 Sn1 O3,5.599352409,5.599352409,5.599352344,56.16581344,56.16581341,56.16581038,trig,R-3,0,-6.589533251,-2.492748274,0.003594649,FALSE,5.608041581,2.5629,FALSE,113.1178777,,
mp-769348,MgSnO3,20,Mg1 Sn1 O3,5.331653,5.456908,7.839454,90,90,90,ortho,Pnma,0.0030238,-6.520117402,-2.423332425,0.073010498,FALSE,5.56260401,2.3909,FALSE,228.0837394,,
mp-1016830,MgTiO3,5,Mg1 Ti1 O3,3.842492,3.842492,3.842492,90,90,90,cubic,Pm-3m,0,-7.781427676,-2.907458667,0.455477979,FALSE,3.517280186,1.9098,FALSE,56.73341366,,
mp-1345923,MgTiO3,20,Mg1 Ti1 O3,5.100857,5.302552,7.464316,90,90,90,ortho,Pnma,0.0002236,-8.153997928,-3.280028919,0.082907727,FALSE,3.953554876,2.3514,TRUE,201.891531,,
mp-3771,MgTiO3,10,Mg1 Ti1 O3,5.470981294,5.470981953,5.470981814,55.07158166,55.07158285,55.07157571,trig,R-3,0,-8.236905655,-3.362936646,0,TRUE,3.892898937,3.5295,FALSE,102.5186191,"{'voigt': -749797742523915.4, 'reuss': -748.398, 'vrh': -374898871262331.9}","{'voigt': 2840528160495073.0, 'reuss': -10256.052, 'vrh': 1420264080242408.5}"
mp-1210617,MgTlCl3,20,Mg1 Tl1 Cl3,7.02457848,7.00641041,9.98633726,90,90,90,ortho,Pnma,0,-3.772317661,-1.862807239,0.020793652,FALSE,4.527861565,4.4363,FALSE,491.4983577,,
mp-998739,MgTlF3,5,Mg1 Tl1 F3,4.077736643,4.077044879,4.074990024,90.00170047,89.96497647,89.99560641,cubic,Pm-3m,0,-5.024689226,-3.077413419,0,TRUE,7.002339075,4.487,FALSE,67.7471661,,
mp-1185613,MgTlO3,5,Mg1 Tl1 O3,3.968634,3.968634,3.968634,90,90,90,cubic,Pm-3m,1.4382643,-4.965142634,-1.195977605,0.569564717,FALSE,7.350449885,0,FALSE,62.50620705,,
mp-1185614,MgUO3,5,Mg1 U1 O3,3.81296,3.81296,3.81296,90,90,90,cubic,Pm-3m,2.0036245,-8.395218106,-2.842065498,0.623524714,FALSE,9.29584907,0,FALSE,55.43534414,,
mp-1016886,MgVO3,5,Mg1 V1 O3,3.779221,3.779221,3.779221,90,90,90,cubic,Pm-3m,1.00169,-7.369989646,-2.258337826,0.510588148,FALSE,3.79149495,0,FALSE,53.97676689,,
mp-1079330,MgVO3,10,Mg1 V1 O3,5.785580398,5.785580398,5.311099,90,90,125.0726864,ortho,Cmc2_1,0.0332291,-7.695857052,-2.584205232,0.184720742,FALSE,2.813136887,0,FALSE,145.4978178,,
mp-1370061,MgVO3,20,Mg1 V1 O3,5.092734,5.249877,7.449735,90,90,90,ortho,Pnma,3.9999653,-7.787761257,-2.676109437,0.092816537,FALSE,4.109948642,0.6976,FALSE,199.1778067,,
mp-27186,MgVO3,10,Mg1 V1 O3,5.2504353,5.22821384,5.709936488,89.99996492,117.3718236,89.99999995,ortho,Cmcm,2.0000001,-7.880577794,-2.768925974,0,TRUE,2.940587508,2.7895,FALSE,139.1916673,,
mp-545348,MgVO3,10,Mg1 V1 O3,5.816439169,5.816439169,5.341526,90,90,126.7874295,ortho,Cmmm,1.9998495,-7.61839454,-2.50674272,0.262183254,FALSE,2.828196039,0,FALSE,144.7230929,,
mp-1147661,MgVS3,20,Mg1 V1 S3,6.673448788,7.053671324,10.96229389,80.29820897,72.27901967,61.76766976,mono,Cm,3.9997352,-5.789722837,-1.16383188,0.2209765,FALSE,2.630642864,0.4611,TRUE,432.8756477,,
mp-1326513,MgWO3,20,Mg1 W1 O3,5.305195,5.425326,7.898059,90,90,90,ortho,Pnma,7.9997314,-8.259686503,-2.373189851,0.081783085,FALSE,7.484182255,2.438,TRUE,227.325191,,
mp-1413707,MgWO3,5,Mg1 W1 O3,4.093572601,4.093572601,4.14933115,84.22692635,84.22692635,94.88192269,mono,Cm,1.9999175,-7.943855864,-2.057359212,0.397613724,FALSE,6.208463464,0,FALSE,68.50902686,,
mp-1185612,MgZnO3,5,Mg1 Zn1 O3,3.820297,3.820297,3.820297,90,90,90,cubic,Pm-3m,0.0536264,-4.774701934,-1.227882606,0.703800707,FALSE,4.101381154,0,FALSE,55.75597084,,
mp-1017000,MgZrO3,5,Mg1 Zr1 O3,4.133326,4.133326,4.133326,90,90,90,cubic,Pm-3m,0.0008381,-7.840343098,-2.835932366,0.667561955,FALSE,3.845387571,1.0257,FALSE,70.61532785,"{'voigt': 157.164, 'reuss': 157.164, 'vrh': 157.164}","{'voigt': 75.847, 'reuss': 57.479, 'vrh': 66.663}"
mp-10666,Mn3AgN,5,Mn3 Ag1 N1,4.003595,4.003595,4.003595,90,90,90,cubic,Pm-3m,9.9344838,-15.08402947,-0.177103102,0.101390397,FALSE,7.418391782,0,FALSE,64.17271513,,
mp-4593,Mn3AlC,5,Mn3 Al1 C1,3.96073285,3.96077457,3.96073517,90,90,90,cubic,Pm-3m,9.3354906,-8.283628118,-0.191570678,0,TRUE,5.446724124,0,FALSE,62.13431004,"{'voigt': 235.077, 'reuss': 235.077, 'vrh': 235.077}","{'voigt': 134.136, 'reuss': 127.024, 'vrh': 130.58}"
mp-1207055,Mn3AlN,5,Mn3 Al1 N1,3.76964,3.76964,3.76964,90,90,90,cubic,Pm-3m,2.7413767,-8.358134774,-0.444154884,0.189247354,FALSE,6.379693956,0,FALSE,53.56728453,,
mp-1206774,Mn3AsN,5,Mn3 As1 N1,3.826193,3.826193,3.826193,90,90,90,cubic,Pm-3m,4.4699219,-8.27627532,-0.177386089,0.170563436,FALSE,7.522142945,0,FALSE,56.01451997,,
mp-1206777,Mn3AsN,5,Mn3 As1 N1,4.803102,4.803102,4.803102,90,90,90,cubic,Pm-3m,15.0074538,-6.616473156,1.482416075,1.8303656,FALSE,3.802566099,0,FALSE,110.8065488,,
mp-1210597,Mn3AsN,5,Mn3 As1 N1,4.602155,4.602155,4.35962,90,90,90,tet,P4/mmm,12.5486541,-6.559609266,1.539279965,1.88722949,FALSE,4.563216574,0,FALSE,92.33601327,,
mp-1207183,Mn3AuN,5,Mn3 Au1 N1,3.822994,3.822994,3.822994,90,90,90,cubic,Pm-3m,7.6126222,-21.06944846,-0.316705495,0.094171633,FALSE,11.16813017,0,FALSE,55.87413969,,
mp-1070242,Mn3CuN,5,Mn3 Cu1 N1,4.510185,4.510185,4.510185,90,90,90,cubic,Pm-3m,11.7982931,-11.17963619,1.625473952,1.90396745,FALSE,4.386712986,0,FALSE,91.74514022,,
mp-510380,Mn3CuN,5,Mn3 Cu1 N1,3.828847,3.828847,3.828847,90,90,90,cubic,Pm-3m,7.2162405,-13.01477149,-0.209661352,0.068832146,FALSE,7.169985079,0,FALSE,56.13116255,,
mp-20164,Mn3GaC,5,Mn3 Ga1 C1,4.62267,4.62267,4.62267,90,90,90,cubic,Pm-3m,11.2426529,-6.03159913,1.916962348,2.037093279,FALSE,4.144494965,0,FALSE,98.78219547,,
mp-21313,Mn3GaC,5,Mn3 Ga1 C1,3.97641365,3.97674201,3.9770618,90,90,90,cubic,Pm-3m,9.7387457,-8.068692409,-0.120130931,0,TRUE,6.509819966,0,FALSE,62.88995916,,
mp-627439,Mn3GaN,5,Mn3 Ga1 N1,3.9957991,3.99398876,3.995899051,90.00014342,89.99833657,90.00082652,cubic,Pm-3m,10.4905472,-13.36714617,-0.442840044,0,TRUE,6.471830013,0,FALSE,63.77125898,"{'voigt': 227.986, 'reuss': 227.986, 'vrh': 227.986}","{'voigt': 135.24, 'reuss': 130.224, 'vrh': 132.732}"
mp-20180,Mn3GeC,5,Mn3 Ge1 C1,3.793362,3.793362,3.793362,90,90,90,cubic,Pm-3m,2.7659412,-8.325291922,-0.057744077,0.038807042,FALSE,7.589017684,0,FALSE,54.58494387,,
mp-22706,Mn3GeC,10,Mn3 Ge1 C1,5.495069339,5.495069339,5.495069339,122.5754021,122.5754021,85.59430588,tet,I4/mcm,10.2872317,-8.351132623,-0.083584778,0.012966341,FALSE,7.37098361,0,FALSE,112.3991386,,
mp-22492,Mn3GeIr,20,Mn3 Ge1 Ir1,6.609486,6.609486,6.609486,90,90,90,cubic,P2_13,40.0011333,-8.232824028,-0.043322446,0.122770651,FALSE,9.88421553,0,FALSE,288.737413,,
mp-1205588,Mn3GeN,10,Mn3 Ge1 N1,5.499840665,5.499840665,5.499840665,123.0810474,123.0810474,84.74148246,tet,I4/mcm,10.9397943,-8.373443921,-0.283973626,0.007051796,FALSE,7.480301347,0,FALSE,111.6427055,,
mp-1206402,Mn3HgN,5,Mn3 Hg1 N1,4.044621,4.044621,4.044621,90,90,90,cubic,Pm-3m,9.7941468,-20.67981123,-0.170498983,0.107994515,FALSE,9.52193756,0,FALSE,66.16578925,,
mp-1094118,Mn3InC,5,Mn3 In1 C1,3.948665,3.948665,3.948665,90,90,90,cubic,Pm-3m,6.0374939,-7.866210946,0.028566076,0.099736581,FALSE,7.865920232,0,FALSE,61.5674081,,
mp-21058,Mn3InC,5,Mn3 In1 C1,5.081511,5.081511,5.081511,90,90,90,cubic,Pm-3m,11.6834312,-5.551797736,2.342979286,2.414149791,FALSE,3.690810935,0,FALSE,131.2135272,,
mp-22502,Mn3IrN,5,Mn3 Ir1 N1,3.907042,3.907042,3.907042,90,90,90,cubic,Pm-3m,8.7677579,-9.150899644,-0.218348084,0.086666013,FALSE,10.33054075,0,FALSE,59.64090701,,
mp-20362,Mn3NiN,5,Mn3 Ni1 N1,3.838489,3.838489,3.838489,90,90,90,cubic,Pm-3m,8.731073,-13.37730644,-0.345212069,0.061092946,FALSE,6.973612954,0,FALSE,56.55628849,,
mp-10198,Mn3PdN,5,Mn3 Pd1 N1,3.94285,3.94285,3.94285,90,90,90,cubic,Pm-3m,9.5420186,-8.501490646,-0.30064956,0.022875056,FALSE,7.727340165,0,FALSE,61.29580681,,
mp-7070,Mn3PtN,5,Mn3 Pt1 N1,3.97888141,3.97888141,3.97888141,90,90,90,cubic,Pm-3m,11.0533758,-8.759913956,-0.380822568,0,TRUE,9.856601371,0,FALSE,62.9916502,"{'voigt': 179.569, 'reuss': 179.569, 'vrh': 179.569}","{'voigt': 75.483, 'reuss': 75.441, 'vrh': 75.462}"
mp-21186,Mn3RhN,5,Mn3 Rh1 N1,4.81553,4.81553,4.81553,90,90,90,cubic,Pm-3m,12.2280342,-13.85988219,1.603114474,2.06270956,FALSE,4.189327037,0,FALSE,111.6689104,,
mp-582028,Mn3RhN,5,Mn3 Rh1 N1,3.901408,3.901408,3.901408,90,90,90,cubic,Pm-3m,8.8228608,-15.83792372,-0.374927058,0.084668028,FALSE,7.877935713,0,FALSE,59.38327024,,
mp-1206805,Mn3SbN,5,Mn3 Sb1 N1,3.912712,3.912712,3.912712,90,90,90,cubic,Pm-3m,4.5020706,-16.02216362,-0.245149532,0.137575635,FALSE,8.332527145,0,FALSE,59.90094128,,
mp-20330,Mn3SiIr,20,Mn3 Si1 Ir1,6.376117,6.376117,6.376117,90,90,90,cubic,P2_13,27.9945615,-8.57337305,-0.223413433,0.120905025,FALSE,9.868077102,0,FALSE,259.220195,,