mp_id,composition,a_edge (angstrom),b_edge (angstrom),c_edge (angstrom),alpha_ang (deg),beta_ang (deg),gamma_ang (deg),crystal_system,space_group,formation_energy (eV/atom),energy_above_hull (eV/atom),band_gap (eV),A_site,B_site,X_site
mp-21233,Ti3 In1 N1,4.18788422,4.18788422,4.18788422,90.0,90.0,90.0,cubic,Pm-3m,-0.93024282,0.006211866,0.0,In,N,Ti
mp-760414,Ti3 Pd1 O1,5.676575204,5.853615169,5.676613023,61.00745447,89.98503713,118.9921631,tet,I4/mcm,-1.454954431,0.0,0.0,Pd,O,Ti
mp-7159,La3 Tl1 C1,5.24077264,5.24077264,5.24077264,90.0,90.0,90.0,cubic,Pm-3m,-0.289524727,0.0,0.0,Tl,C,La
mp-1076000,La1 Ag1 O3,4.108444,4.108444,4.108444,90.0,90.0,90.0,cubic,Pm-3m,-1.886074956,0.23923105,0.0,La,Ag,O
mp-768308,La1 Ag1 O3,5.731080998,5.731080998,5.731080605,62.31957935,62.31957935,62.31958708,trig,R3c,-2.088594065,0.036711941,0.0,La,Ag,O
mp-1069603,La1 Al3 Au1,6.272133772,6.272133772,6.272133772,139.2942875,139.2942875,58.92640679,tet,I4mm,-0.660585451,0.0,0.0,La,Au,Al
mp-1070573,La1 Al3 Cu1,6.132876207,6.132876207,6.132876207,139.1565836,139.1565836,59.13617398,tet,I4mm,-0.519857547,0.0,0.0,La,Cu,Al
mp-1080060,La1 Al1 O3,5.355289105,5.355289105,5.355289105,90.19529289,119.7749816,119.9997686,ortho,Imma,-3.722466563,0.0,3.7121,La,Al,O
mp-1080080,La1 Al1 O3,5.360968297,5.360968297,5.360968297,120.1686566,120.1686566,89.70812557,tet,I4/mcm,-3.722067564,0.000398999,3.5193,La,Al,O
mp-1182592,La1 Al1 O3,4.731420223,6.398442,4.761754571,89.32638111,119.7894795,91.35596217,hex_,P6/mmm,-0.8172206,2.905245963,0.0,La,Al,O
mp-2920,La1 Al1 O3,5.35090685,5.350907329,5.350905874,60.14702703,60.14701797,60.14701406,trig,R-3c,-3.722193366,0.000273197,4.0189,La,Al,O
mp-5304,La1 Al1 O3,3.7829488,3.7829488,3.7829488,90.0,90.0,90.0,cubic,Pm-3m,-3.719413138,0.003053425,3.4924,La,Al,O
mp-696871,La1 Al1 O3,3.79585,5.856904212,6.196032719,107.3494188,94.25969343,107.0592687,tri,P1,-3.494131784,0.228334779,3.5819,La,Al,O
mp-768417,La1 Al1 O3,7.352805,7.925999501,8.318543282,103.8221212,96.34129759,89.67373902,tri,P-1,-3.691301952,0.031164611,4.4431,La,Al,O
mp-768518,La1 Al1 O3,7.091014976,7.091014976,10.17005618,90.0,90.0,120.0592492,ortho,Cmcm,-3.669252299,0.053214264,4.6067,La,Al,O
mp-771698,La1 Al1 O3,6.053921,7.664067,13.57440073,64.73654041,90.0,90.0,mono,P2_1/c,-3.665347736,0.057118827,4.4777,La,Al,O
mp-771703,La1 Al1 O3,6.851714,6.858873336,9.85453549,109.8104682,86.91555564,101.580856,tri,P-1,-3.679706405,0.042760158,4.1704,La,Al,O
mp-780411,La1 Al1 O3,8.926582,8.801588,10.76172607,79.35831772,90.0,90.0,mono,P2_1/c,-3.629298,0.093168563,4.4685,La,Al,O
mp-780421,La1 Al1 O3,6.819106,7.900936353,8.054993228,102.7046351,92.71731022,93.24450081,tri,P-1,-3.63982619,0.082640373,4.2693,La,Al,O
mp-780422,La1 Al1 O3,7.938888,7.367605,16.24774769,82.78194948,90.0,90.0,mono,P2_1/c,-3.686656307,0.035810256,4.2491,La,Al,O
mp-1079050,La1 As1 O3,5.32325283,4.43439964,6.222333267,74.4633155,90.0,90.0,mono,P2_1/m,-2.863692103,0.0,2.693,La,As,O
mp-28853,La1 Au1 O3,4.03934509,5.70785039,13.10108913,90.0,90.0,90.0,ortho,Pbcm,-2.314873116,0.0,1.7977,La,Au,O
mp-7492,La1 B1 O3,4.179424058,5.08865142,6.314355325,90.0,107.6858439,90.0,mono,P2_1/m,-3.506930753,0.014214797,4.0022,La,B,O
mp-8216,La1 B1 O3,5.12056909,5.8479603,8.25010439,90.0,90.0,90.0,ortho,Pnma,-3.52114555,0.0,4.5007,La,B,O
mp-3846,La1 B1 Pd3,4.417416,4.417416,4.417416,90.0,90.0,90.0,cubic,Pm-3m,-0.577611543,0.144084255,0.0,La,B,Pd
mp-1018633,La1 B1 Pt3,4.43091,4.43091,4.43091,90.0,90.0,90.0,cubic,Pm-3m,-0.783250659,0.169689115,0.0,La,B,Pt
mp-3088,La1 B1 Rh3,4.26187973,4.26187973,4.26187973,90.0,90.0,90.0,cubic,Pm-3m,-0.697862201,0.0,0.0,La,B,Rh
mp-1222880,La1 Be1 Al3,6.178596264,6.178596264,6.178596264,139.5934619,139.5934619,58.47109197,tet,I-4m2,-0.252044398,0.110200626,0.0,La,Be,Al
mp-981934,La1 Be1 O3,3.707597,3.707597,3.707597,90.0,90.0,90.0,cubic,Pm-3m,-2.919646555,0.259460226,0.0,La,Be,O
mp-755003,La1 Bi1 O3,6.298058724,6.298058724,6.298058326,60.02589617,60.02589617,60.02589877,trig,R-3,-2.728375363,0.04065049,2.6285,La,Bi,O
mp-768310,La1 Bi1 O3,6.27184036,6.27184036,6.271839422,59.99759032,59.99759032,59.99759113,trig,R3c,-2.733831392,0.035194461,3.07,La,Bi,O
mp-973869,La1 Cd1 O3,4.180291,4.180291,4.180291,90.0,90.0,90.0,cubic,Pm-3m,-2.06504877,0.411376229,0.0,La,Cd,O
mp-19973,La1 Co1 Ge3,4.33881559,4.338814936,5.797683737,111.9739712,111.9739748,89.99999928,tet,I4mm,-0.584309911,0.0,0.0,La,Co,Ge
mp-989643,La1 Co1 N3,4.040095203,5.727433628,7.447385271,102.4437451,89.99999409,110.6523568,mono,C2/m,-0.641243549,0.0,0.4901,La,Co,N
mp-1180725,La1 Co1 O3,5.427133464,5.377974265,5.420641796,60.92337332,60.47313587,60.65933577,mono,C2/c,-2.561161988,0.03876415,1.104,La,Co,O
mp-1181307,La1 Co1 O3,10.54234393,10.54234393,6.302079,81.40569463,81.40569463,82.52045369,mono,C2/c,0.315080773,2.915006911,0.0,La,Co,O
mp-1185232,La1 Co1 O3,5.467447,5.550136,7.809735,90.0,90.0,90.0,ortho,Pnma,-2.552439415,0.047486723,0.973,La,Co,O
mp-1272753,La1 Co1 O3,5.558352918,9.401832445,5.547802245,90.11985765,60.68547882,72.89825823,tri,P1,-2.569496319,0.03042982,0.6739,La,Co,O
mp-1273989,La1 Co1 O3,5.437777619,8.032935108,5.569240458,89.94873461,90.01827884,91.4205015,mono,P2_1/c,-2.582005683,0.017920455,0.0,La,Co,O
mp-1277476,La1 Co1 O3,5.498308833,5.590821086,7.792867773,89.72569796,91.74818082,89.55862809,tri,P-1,-2.565049609,0.034876529,0.0,La,Co,O
mp-1288145,La1 Co1 O3,5.475249487,5.468355789,5.4410268,61.18310058,61.09933598,61.05012142,trig,R-3,-2.599926138,0.0,0.9497,La,Co,O
mp-1504268,La1 Co1 O3,5.516916838,5.516916838,5.460191301,60.77948044,60.77948044,60.58956079,ortho,Imma,-2.544780892,0.055145246,0.9398,La,Co,O
mp-19051,La1 Co1 O3,5.361153262,7.620694114,5.44114223,90.03294689,89.78964199,91.17317138,trig,R-3c,-2.596609753,0.003316385,1.0014,La,Co,O
mp-510611,La1 Co1 O3,4.445931,4.445931,4.445931,90.0,90.0,90.0,cubic,Pm-3m,-1.16965092,1.430275218,0.0,La,Co,O
mp-561922,La1 Co1 O3,5.379516089,5.378457948,5.456663753,60.09469467,60.28142536,61.54033686,tri,P-1,-2.588514638,0.0114115,0.0,La,Co,O
mp-573180,La1 Co1 O3,3.816817,3.816817,3.816817,90.0,90.0,90.0,cubic,Pm-3m,-2.523377392,0.076548746,0.4388,La,Co,O
mp-570885,La1 Co1 Sb3,6.230947,12.199555,13.021695,90.0,90.0,90.0,ortho,Pbcm,-0.718036988,0.006437704,0.0,La,Co,Sb
mp-1068559,La1 Co1 Si3,5.64866014,5.64866014,5.64866014,136.738327,136.738327,62.84091213,tet,I4mm,-0.627242814,0.0,0.0,La,Co,Si
mp-13005,La1 Cr1 Ge3,6.174818489,6.174819738,5.96819897,90.00001943,89.99998517,119.9995258,hex_,P6_3/mmc,-0.487377386,0.0,0.0,La,Cr,Ge
mp-989612,La1 Cr1 N3,7.205637819,7.205637819,5.957956718,78.68090126,78.68090126,90.1278287,mono,C2/c,-0.991578443,0.011596411,1.4148,La,Cr,N
mp-18841,La1 Cr1 O3,3.927151,3.927151,3.927151,90.0,90.0,90.0,cubic,Pm-3m,-3.10516652,0.091456824,1.9039,La,Cr,O
mp-19281,La1 Cr1 O3,5.50572244,5.51974573,7.78598881,90.0,90.0,90.00033228,ortho,Pnma,-3.196623345,0.0,2.3706,La,Cr,O
mp-19357,La1 Cr1 O3,5.457200572,5.457200045,5.457496814,61.13442931,61.13443016,61.13540773,trig,R-3c,-3.193095826,0.003527518,0.0,La,Cr,O
mp-10328,La1 Cr1 S3,3.81736164,7.90286332,13.17595561,90.0,90.0,90.0,ortho,Pnma,-1.759909758,0.0,0.0,La,Cr,S
mp-19861,La1 Cr1 Sb3,6.32443647,6.2188672,13.38310124,90.00050104,89.99959866,90.00051474,ortho,Pbcm,-0.637515551,0.002318739,0.0,La,Cr,Sb
mp-1105933,La1 Cr1 Se3,3.99881852,8.23863144,13.8322711,90.0,90.0,90.0,ortho,Pnma,-1.573557187,0.0,0.0,La,Cr,Se
mp-1076070,La1 Cu1 O3,3.871669,3.871669,3.871669,90.0,90.0,90.0,cubic,Pm-3m,-2.399634706,0.024221094,0.0,La,Cu,O
mp-3474,La1 Cu1 O3,5.410692901,5.410693142,5.410692558,60.98872651,60.98872654,60.9887221,trig,R-3c,-2.4238558,0.0,0.0,La,Cu,O
mp-756272,La1 Dy1 O3,5.941605,6.1279,8.576976,90.0,90.0,90.0,ortho,Pna2_1,-3.899716204,0.040771145,4.4015,La,Dy,O
mp-7538,La1 Er1 O3,5.877087,6.076924,8.514153,90.0,90.0,90.0,ortho,Pnma,-3.938616242,0.027895266,4.4376,La,Er,O
mp-1200571,La1 Er1 S3,4.00156755,11.07649514,21.61047509,78.6836308,90.0,90.0,mono,P2_1/m,-2.444238584,0.003274833,0.76,La,Er,S
mp-558977,La1 Er1 S3,3.99160695,16.45025474,21.4033903,90.0,90.0,90.0,ortho,Pnma,-2.447513417,0.0,1.1359,La,Er,S
mp-19743,La1 Fe1 Ge3,4.404815049,4.404815363,5.843441239,112.1419508,112.1419425,89.99999943,tet,I4mm,-0.530339434,0.0,0.0,La,Fe,Ge
mp-1078634,La1 Fe1 O3,5.427511549,5.423071091,5.434553664,61.10598371,60.84843943,60.8041781,trig,R-3c,-2.852925804,0.0,1.9509,La,Fe,O
mp-1181002,La1 Fe1 O3,4.046154304,6.759937138,11.06507041,89.99330492,89.99916333,90.02750032,ortho,Pnma,-2.746178184,0.106747621,1.2424,La,Fe,O
mp-22590,La1 Fe1 O3,5.600805,5.661924,7.944671,90.0,90.0,90.0,ortho,Pnma,-2.825153782,0.027772022,1.4334,La,Fe,O
mp-552676,La1 Fe1 O3,3.957177,3.957177,3.957177,90.0,90.0,90.0,cubic,Pm-3m,-2.72291731,0.130008494,0.8484,La,Fe,O
mp-605340,La1 Fe1 O3,5.662336,6.452887,9.124399,90.0,90.0,90.0,ortho,Pmn2_1,-2.561032919,0.291892886,1.766,La,Fe,O
mp-1222853,La1 Ga3 Cu1,6.059352814,6.059352814,6.059352814,138.9023299,138.9023299,59.52381072,tet,I-4m2,-0.592706955,0.0,0.0,La,Cu,Ga
mp-1223040,La1 Ga3 Ni1,4.187477,4.187477,6.10570018,69.94541032,69.94541032,90.0,tet,I-4m2,-0.545778934,0.03819669,0.0,La,Ni,Ga
mp-1222842,La1 Ga3 Pd1,6.125493243,6.125493243,6.125493243,138.8922131,138.8922131,59.53924373,tet,I-4m2,-0.772109603,0.0,0.0,La,Pd,Ga
mp-1222794,La1 Ga3 Pt1,6.099497298,6.099497298,6.099497298,138.6468173,138.6468173,59.91379808,tet,I-4m2,-0.748512738,0.0,0.0,La,Pt,Ga
mp-1078871,La1 Ga1 O3,5.529890124,5.529890124,5.529890516,60.78512786,60.78512786,60.7851261,trig,R3c,-3.091884075,0.038595358,3.3682,La,Ga,O
mp-1097026,La1 Ga1 O3,3.913456,3.913456,3.913456,90.0,90.0,90.0,cubic,Pm-3m,-3.034155365,0.096324067,3.3659,La,Ga,O
mp-1180739,La1 Ga1 O3,5.546311,5.594213,7.850523,90.0,90.0,90.0,ortho,Pnma,-3.092933671,0.037545762,3.2035,La,Ga,O
mp-3336,La1 Ga1 O3,5.52859349,5.52859349,5.52859264,60.79416365,60.79416365,60.79416118,trig,R-3c,-3.092408395,0.038071038,3.3802,La,Ga,O
mp-556983,La1 Ga1 O3,5.560039029,5.560039029,5.560039029,120.2407756,119.5963881,90.14198201,ortho,Imma,-3.092894673,0.037584759,3.1939,La,Ga,O
mp-5837,La1 Ga1 O3,5.559203,5.588688,7.878575,90.0,90.0,90.0,ortho,Pnma,-3.09793003,0.032549403,3.3483,La,Ga,O
mp-9831,La1 Ga1 O3,4.599907,4.599907,4.599907,90.0,90.0,90.0,cubic,Pm-3m,-1.686664251,1.443815181,0.0,La,Ga,O
mp-1201646,La1 Ga1 S3,6.07583879,10.45074162,22.04748482,90.0,90.0,90.0,ortho,Pna2_1,-1.679392954,0.004735787,2.1506,La,Ga,S
mp-4816,La1 Ga1 S3,10.57888155,10.38992345,12.88081913,81.2740084,90.0,90.0,mono,P2_1/c,-1.68412874,0.0,2.2366,La,Ga,S
mp-20910,La1 Ge3 Ir1,4.447233155,4.447233477,5.950567292,111.9428407,111.9428412,90.00000202,tet,I4mm,-0.728472996,0.0,0.0,La,Ir,Ge
mp-1069898,La1 Ge3 Os1,5.984121876,5.984121876,5.984121876,136.3558094,136.3558094,63.43072536,tet,I4mm,-0.524466258,0.0,0.0,La,Os,Ge
mp-13123,La1 Ge3 Rh1,4.432189988,4.432189992,5.942181117,111.8725895,111.8725906,89.99589559,tet,I4mm,-0.761658058,0.0,0.0,La,Rh,Ge
mp-1068387,La1 Ge3 Ru1,5.962249337,5.962249337,5.962249337,136.3116692,136.3116692,63.49885603,tet,I4mm,-0.634081964,0.0,0.0,La,Ru,Ge
mp-756166,La1 Ho1 O3,5.883519,6.075524,8.575969,90.0,90.0,90.0,ortho,Pnma,-3.917213722,0.03453046,4.3855,La,Ho,O
mp-770413,La1 Ho1 O3,6.085854,6.033146,8.510631507,89.85699993,90.0,90.0,mono,P2_1/c,-3.870543979,0.081200203,4.236,La,Ho,O
mp-1200097,La1 Ho1 S3,4.01058461,11.10123958,21.67602939,101.3099937,90.0,90.0,mono,P2_1/m,-2.461436819,0.0,0.7588,La,Ho,S
mp-1080184,La1 I1 O3,10.83855235,10.83855235,4.484834187,87.82126115,87.82126115,21.87010853,mono,C2/m,-2.260693369,0.098233926,0.7893,La,I,O
mp-11623,La1 In1 O3,5.73615203,5.95376221,8.25417615,90.0,90.0,90.0,ortho,Pnma,-2.928291701,0.006706452,2.7507,La,In,O
mp-1222954,La1 Lu1 C3,7.290215705,7.290215705,7.290215705,109.4712206,109.4712206,109.4712206,cubic,I2_13,-0.150317456,0.114051838,0.0,La,Lu,C
mp-22220,La1 Lu1 O3,5.78622784,5.97112351,8.32190561,90.0,90.0,90.0,ortho,Pnma,-3.988481201,0.011375044,4.4525,La,Lu,O
mp-1106374,La1 Lu1 S3,6.70515075,7.33021724,9.86327545,90.0,90.0,90.0,ortho,Pnma,-2.461562992,0.0,2.2322,La,Lu,S
mp-1184964,La1 Mg1 O3,3.945789,3.945789,3.945789,90.0,90.0,90.0,cubic,Pm-3m,-2.943346983,0.209941145,0.0,La,Mg,O
mp-1232327,La1 Mg1 S3,8.006753203,11.55862,7.958031464,90.0,129.2067296,90.0,mono,C2/m,-1.579605349,0.403210427,0.2009,La,Mg,S
mp-1232358,La1 Mg1 S3,6.996812,6.996811188,17.617833,90.0,90.0,120.0000038,trig,R-3,-1.635326852,0.347488924,0.0,La,Mg,S
mp-1238931,La1 Mg1 S3,7.083251954,7.083251954,4.995139842,82.43688943,82.43688943,106.7716649,mono,C2/m,-1.700805357,0.282010419,0.0,La,Mg,S
mp-1232143,La1 Mg1 Se3,7.36619708,7.36619708,6.817848913,76.79524257,76.79524257,113.9563207,mono,C2/m,-1.430920492,0.40255269,0.0,La,Mg,Se
mp-989554,La1 Mn1 N3,6.430161004,6.430161004,5.327197,90.0,90.0,143.3829383,ortho,Cmcm,-0.828551433,0.013571642,0.0,La,Mn,N
mp-989589,La1 Mn1 N3,5.907698464,5.907698464,7.03046776,61.8186417,61.8186417,41.23690212,mono,C2/m,-0.842123075,0.0,0.0,La,Mn,N
mp-1180700,La1 Mn1 O3,5.563543,5.565174,8.031702,90.0,90.0,90.0,ortho,Pnma,-2.967020409,0.168244392,1.1014,La,Mn,O
mp-1180932,La1 Mn1 O3,4.137008,5.807498,12.90489,90.0,90.0,90.0,ortho,Pnma,-2.504748675,0.630516126,0.5347,La,Mn,O
mp-1205375,La1 Mn1 O3,3.99551,5.564051655,5.565343655,90.05558971,89.99977197,90.00026298,tet,P4/mbm,-2.968048728,0.167216073,0.0,La,Mn,O
mp-1272373,La1 Mn1 O3,5.492280275,5.601657288,8.08411,90.00010077,90.00006675,89.96349915,ortho,Pnnm,-2.962402039,0.172862762,0.5803,La,Mn,O
mp-1272996,La1 Mn1 O3,5.550811001,5.714156002,7.882481,90.00002457,89.99990478,90.0028353,ortho,Pbam,-2.959823443,0.175441358,0.5975,La,Mn,O
mp-1273223,La1 Mn1 O3,3.939325,8.823933158,7.903473005,63.3907316,90.00055181,89.99925949,ortho,Cmmm,-2.899477352,0.235787449,0.0,La,Mn,O
mp-1273769,La1 Mn1 O3,6.847261829,6.847318954,6.8746787,70.42832012,69.53676264,108.220045,mono,C2/m,-2.959400331,0.17586447,0.0,La,Mn,O
mp-1278019,La1 Mn1 O3,5.574875833,5.574877953,8.826724432,71.5922722,71.59269584,89.99493466,tet,I4/mmm,-2.917636934,0.217627867,0.0,La,Mn,O
mp-1278230,La1 Mn1 O3,5.544864958,7.984852816,5.652318173,89.38115012,90.04509009,91.49769421,tri,P-1,-2.988675191,0.14658961,0.0,La,Mn,O
mp-1278738,La1 Mn1 O3,3.947522,5.568348565,5.568344323,90.01428969,89.99956836,90.00051385,tet,P4/mmm,-2.919669006,0.215595795,0.0,La,Mn,O
mp-1279320,La1 Mn1 O3,4.02144,7.889233527,7.822822964,89.61046359,89.99960279,89.99956265,tet,P4/m,-2.96404746,0.171217341,0.0,La,Mn,O
mp-1281528,La1 Mn1 O3,3.966672,11.07224004,5.69911702,89.99010164,90.00080843,89.99998969,ortho,Pmc2_1,-2.958365909,0.176898892,0.0716,La,Mn,O
mp-1283081,La1 Mn1 O3,5.582734739,5.581586269,5.582722011,60.00796122,89.97534049,119.9920556,cubic,Fm-3m,-2.910514833,0.224749968,0.6151,La,Mn,O
mp-17554,La1 Mn1 O3,5.87143,7.777420048,5.585996149,90.10098825,89.99992001,89.9998483,ortho,Pnma,-3.009731306,0.125533495,0.0,La,Mn,O
mp-19025,La1 Mn1 O3,3.94437,3.94437,3.94437,90.0,90.0,90.0,cubic,Pm-3m,-2.9288622,0.206402601,0.0,La,Mn,O
mp-19157,La1 Mn1 O3,5.477482623,5.546438072,5.546199786,60.0637409,59.73993498,59.73897774,mono,C2/c,-2.997132545,0.138132256,0.0,La,Mn,O
mp-19168,La1 Mn1 O3,5.563969612,5.563969432,5.563969695,61.04400996,61.04401257,61.04400385,trig,R-3c,-2.994589144,0.140675657,0.0,La,Mn,O
mp-557795,La1 Mn1 O3,5.971485316,5.433429093,10.413179,90.0,90.0,61.57895617,mono,P2_1/c,-2.664739528,0.470525273,1.4409,La,Mn,O
mp-566602,La1 Mn1 O3,10.474801,5.716901,6.227644206,62.94228853,90.0,90.0,mono,P2_1/c,-2.715198872,0.420065929,1.6926,La,Mn,O
mp-645158,La1 Mn1 O3,10.297857,5.674393,6.043189751,70.70900253,90.0,90.0,mono,P2_1/c,-2.713913719,0.421351082,0.9889,La,Mn,O
mp-989515,La1 Mo1 N3,3.898316,3.898316,4.65975,90.0,90.0,90.0,tet,P4mm,-1.07188264,0.041644898,0.0,La,Mo,N
mp-989534,La1 Mo1 N3,3.89039,5.83559,7.987789533,71.09462573,90.0,90.0,mono,P2_1/m,-1.090724972,0.022802566,1.2238,La,Mo,N
mp-989552,La1 Mo1 N3,5.740910484,5.740910484,5.740909642,59.84629482,59.84629482,59.84629786,trig,R3c,-1.084178514,0.029349024,1.1509,La,Mo,N
mp-989603,La1 Mo1 N3,7.703679827,7.703679827,3.96224662,90.0,90.0,136.1985766,ortho,Ama2,-1.09319149,0.020336049,0.8051,La,Mo,N
mp-989631,La1 Mo1 N3,7.386663758,7.386663758,6.302621913,77.01613387,77.01613387,85.99538973,mono,C2/c,-1.113527538,0.0,2.0751,La,Mo,N
mp-1201689,La1 Ni3 B1,9.603839721,9.603839721,7.160559,90.0,90.0,118.0176237,ortho,Cmcm,-0.438572296,0.003091422,0.0,La,B,Ni
mp-1203921,La1 Ni3 B1,9.64092516,9.64092516,7.130319,90.0,90.0,118.5685919,ortho,Cmcm,-0.441387422,0.000276296,0.0,La,B,Ni
mp-1205795,La1 Ni3 B1,5.955957335,5.955957335,5.955957335,131.3224446,107.0304009,92.68385703,ortho,Imma,-0.441663718,0.0,0.0,La,B,Ni
mp-1207245,La1 Ni1 Ge3,4.402065012,4.402063042,5.756151097,112.5015174,112.5016305,89.95103547,tet,I4mm,-0.628216674,0.0,0.0,La,Ni,Ge
mp-1075921,La1 Ni1 O3,3.856999,3.856999,3.856999,90.0,90.0,90.0,cubic,Pm-3m,-2.436526664,0.035178056,0.0,La,Ni,O
mp-1278441,La1 Ni1 O3,5.46805051,6.687176347,6.686765365,70.42143197,90.01808041,90.02295612,ortho,Cmmm,-2.428134476,0.043570244,0.0,La,Ni,O
mp-1284950,La1 Ni1 O3,5.433893398,7.718360475,5.556433748,89.90964166,90.12785684,91.57863494,tri,P-1,-2.451816146,0.019888574,0.356,La,Ni,O
mp-19339,La1 Ni1 O3,5.381489902,5.381490106,5.381483561,60.90056947,60.90059495,60.90047373,trig,R-3c,-2.47170472,0.0,0.0,La,Ni,O
mp-569538,La1 Ni1 Sb3,6.26613721,12.23154896,13.01603827,90.00099244,90.00034331,89.99935684,ortho,Pbcm,-0.764439334,0.0,0.0,La,Ni,Sb
mp-989564,La1 Os1 N3,3.950555,3.950555,3.950555,90.0,90.0,90.0,cubic,Pm-3m,-0.55917339,0.053189756,0.0,La,Os,N
mp-989588,La1 Os1 N3,5.570318313,5.570318313,5.570318546,60.29869774,60.29869774,60.29869398,trig,R-3c,-0.575558562,0.036804584,0.0,La,Os,N
mp-989607,La1 Os1 N3,5.574038,5.578766,7.920005,90.0,90.0,90.0,ortho,Pnma,-0.575023185,0.037339962,0.0,La,Os,N
mp-989621,La1 Os1 N3,3.6794681,5.6701609,6.71104745,90.00002693,90.00001056,89.99999994,ortho,Pmma,-0.612363146,0.0,0.0,La,Os,N
mp-989632,La1 Os1 N3,10.249577,4.843738,7.218384987,71.26044247,90.0,90.0,mono,P2_1/c,-0.591896226,0.02046692,0.0272,La,Os,N
mp-989641,La1 Os1 N3,4.766719,3.836983,7.408526216,82.88486302,90.0,90.0,mono,P2_1/m,-0.587464619,0.024898527,0.0,La,Os,N
mp-1017581,La1 Pd3 C1,4.384889,4.384889,4.384889,90.0,90.0,90.0,cubic,Pm-3m,-0.189429078,0.467590356,0.0,La,C,Pd
mp-16415,La1 Pd1 O3,5.619867201,5.91080386,7.823997522,90.00083176,90.00225173,89.99945815,ortho,Pnma,-2.362232831,0.0,0.0,La,Pd,O
mp-1017582,La1 Pt3 C1,4.406794,4.406794,4.406794,90.0,90.0,90.0,cubic,Pm-3m,-0.217939876,0.513300567,0.0,La,C,Pt
mp-1185084,La1 Pt1 O3,4.089271,4.089271,4.089271,90.0,90.0,90.0,cubic,Pm-3m,-2.015831274,0.425225818,0.0,La,Pt,O
mp-989581,La1 Re1 N3,5.577261499,5.577261499,5.577261327,60.28365003,60.28365003,60.28363382,trig,R-3c,-0.929144193,0.0,0.0,La,Re,N
mp-989602,La1 Re1 N3,3.95489279,3.95489279,3.95489279,90.0,90.0,90.0,cubic,Pm-3m,-0.922901401,0.006242792,0.0,La,Re,N
mp-989614,La1 Re1 N3,5.374654,7.063151,11.27883928,59.1872081,90.0,90.0,mono,P2_1/c,-0.886972159,0.042172034,1.4312,La,Re,N
mp-1206401,La1 Rh3 C1,4.266945,4.266945,4.266945,90.0,90.0,90.0,cubic,Pm-3m,-0.372588525,0.048086153,0.0,La,C,Rh
mp-5163,La1 Rh1 O3,5.50481427,5.76156261,7.90193892,90.0,90.0,90.0,ortho,Pnma,-2.545009926,0.0,0.594,La,Rh,O
mp-20472,La1 Ru1 O3,5.476499,5.913106,7.92462,90.0,90.0,90.0,ortho,Pnma,-2.560103778,0.044498394,0.0,La,Ru,O
mp-1211524,La1 Sb3 Pd1,6.41118279,12.55580916,13.13921043,90.00098618,89.99925372,90.0003308,ortho,Pbcm,-0.820828957,0.0,0.0,La,Pd,Sb
mp-1222966,La1 Sb1 Se3,4.118099,11.184008,12.255458,90.0,90.0,90.0,ortho,Pnma,-1.394275334,0.033330648,0.9761,La,Sb,Se
mp-1096800,La1 Sc1 O3,4.078908,4.078908,4.078908,90.0,90.0,90.0,cubic,Pm-3m,-3.746481555,0.204081823,2.8177,La,Sc,O
mp-31116,La1 Sc1 O3,5.68506091,5.80353077,8.10225831,90.0,90.0,90.0,ortho,Pnma,-3.950563378,0.0,3.8973,La,Sc,O
mp-1190131,La1 Sc1 S3,6.58114518,7.21722551,9.64897414,90.0,90.0,90.0,ortho,Pnma,-2.374062289,0.0,1.6446,La,Sc,S