mp_id,formula,sites,composition,a_edge (angstrom),b_edge (angstrom),c_edge (angstrom),alpha_ang (deg),beta_ang (deg),gamma_ang (deg),crystal_system,space_group,total_magnetisation (bohr),energy_per_atom (eV/atom),formation_energy (eV/atom),energy_above_hull (eV/atom),stable,density (g/cc),band_gap (eV),direct_bandgap,volume (cubic-angstrom),bulk_modulus (GPa),shear_modulus (GPa)
mp-769079,ScGaO3,30,Sc1 Ga1 O3,5.734680531,5.734676261,11.53189412,90.00004384,89.99993244,119.9999709,hex_,P6_3cm,0,-7.955223723,-3.114334094,0.004530561,FALSE,4.934887554,3.1715,FALSE,328.4350819,,
mp-768358,ScInO3,10,Sc1 In1 O3,3.466400468,3.466400468,12.748711,90,90,120.0000089,hex_,P6_3/mmc,5.40E-06,-7.694859255,-2.907754082,0.073645932,FALSE,5.201301266,2.1982,TRUE,132.664382,,
mp-624739,ScIr3C,5,Sc1 Ir3 C1,4.685136,4.685136,4.685136,90,90,90,cubic,Pm-3m,0.0245788,-5.496298736,2.918988692,3.415863378,FALSE,10.23080322,0,FALSE,102.8410747,,
mp-1105811,ScMnO3,20,Sc1 Mn1 O3,5.116733912,5.422535,7.904384292,89.99940596,94.15850618,90.00043305,mono,P2_1/c,15.9997915,-9.009025804,-2.941352322,0.049973921,FALSE,4.490925838,1.798,FALSE,218.7350343,,
mp-18954,ScMnO3,30,Sc1 Mn1 O3,5.857486453,5.857485989,11.18225755,89.99999734,89.9999965,120.00033,hex_,P6_3cm,23.9999995,-9.051214286,-2.983540803,0.007785439,FALSE,4.434700161,0,FALSE,332.2624242,,
mp-1246879,ScMoN3,20,Sc1 Mo1 N3,9.28047584,5.716124631,7.82068618,106.0508537,102.8980904,119.8391646,tri,P-1,0.0014132,-9.375861774,-0.937271284,0.122036312,FALSE,3.896915427,1.2502,FALSE,311.7739551,,
mp-1018635,ScPd3C,5,Sc1 Pd3 C1,4.21238,4.21238,4.21238,90,90,90,cubic,Pm-3m,0.0001294,-6.405410242,-0.185254236,0.499212708,FALSE,8.358262044,0,FALSE,74.74508263,"{'voigt': 166.014, 'reuss': 166.014, 'vrh': 166.014}","{'voigt': 37.196, 'reuss': 17.862, 'vrh': 27.529}"
mp-973123,ScPdO3,5,Sc1 Pd1 O3,4.078754,4.078754,4.078754,90,90,90,cubic,Pm-3m,2.9942532,-6.811770678,-1.540523892,0.82006573,FALSE,4.879050637,0,FALSE,67.85510676,"{'voigt': 118.718, 'reuss': 118.718, 'vrh': 118.718}","{'voigt': 42.597, 'reuss': 4.692, 'vrh': 23.645}"
mp-1018628,ScPt3C,5,Sc1 Pt3 C1,4.247042,4.247042,4.247042,90,90,90,cubic,Pm-3m,0.003982,-6.93287909,-0.177972178,0.654000998,FALSE,13.92106039,0,FALSE,76.60544991,"{'voigt': 197.069, 'reuss': 197.069, 'vrh': 197.069}","{'voigt': 14.534, 'reuss': -52.695, 'vrh': -19.081}"
mp-10712,ScRh3C,5,Sc1 Rh3 C1,4.07473446,4.07473446,4.07473446,90,90,90,cubic,Pm-3m,1.60E-06,-8.02562332,-0.494811678,0,TRUE,8.975446555,0,FALSE,67.65469436,"{'voigt': 213.993, 'reuss': 213.993, 'vrh': 213.993}","{'voigt': 89.311, 'reuss': 87.806, 'vrh': 88.558}"
mp-1188449,ScRhO3,20,Sc1 Rh1 O3,5.122828,5.541807,7.574297,90,90,90,ortho,Pnma,0.000206,-8.189887848,-2.48175585,0.051140098,FALSE,6.049931768,1.0497,FALSE,215.0322019,,
mp-1196890,ScRhO3,40,Sc1 Rh1 O3,7.531681,7.560377,10.41708387,46.86314749,90,90,mono,P2_1/c,0.0015271,-8.216413682,-2.508281684,0.024614264,FALSE,6.010970823,1.1199,FALSE,432.8519261,,
mp-7130,ScRu3C,5,Sc1 Ru3 C1,4.06130662,4.06130662,4.06130662,90,90,90,cubic,Pm-3m,7.28E-05,-8.953600442,-0.276731999,0,TRUE,8.928269047,0,FALSE,66.9880502,"{'voigt': 236.198, 'reuss': 236.198, 'vrh': 236.198}","{'voigt': 141.294, 'reuss': 137.001, 'vrh': 139.147}"
mp-3129,ScSi3Ni,10,Sc1 Si3 Ni1,10.48199976,10.48199976,3.82633472,90,90,158.9387153,ortho,Cmmm,0,-6.256147665,-0.57843569,0,TRUE,4.130576629,0,FALSE,151.0805729,,
mp-1186993,ScSiO3,5,Sc1 Si1 O3,3.582486,3.582486,3.582486,90,90,90,cubic,Pm-3m,0.1221288,-8.084743016,-2.764408986,0.70782659,FALSE,4.371425835,0,FALSE,45.9783631,,
mp-981376,ScSnO3,5,Sc1 Sn1 O3,4.10743,4.10743,4.10743,90,90,90,cubic,Pm-3m,0.9385749,-7.307863332,-2.270678537,0.6724759,FALSE,5.072076719,0,FALSE,69.29637433,"{'voigt': 112.688, 'reuss': 112.688, 'vrh': 112.688}","{'voigt': 48.674, 'reuss': 39.521, 'vrh': 44.097}"
mp-1101375,ScTiO3,10,Sc1 Ti1 O3,5.641917911,5.641917911,5.641917629,55.41961692,55.41961692,55.41962213,trig,R-3,2.0024049,-9.381252957,-3.56688413,0.069202008,FALSE,4.121270148,0,FALSE,113.4790729,,
mp-754092,ScTiO3,20,Sc1 Ti1 O3,5.155586,5.519722,7.539189,90,90,90,ortho,Pna2_1,3.9958642,-9.353816591,-3.539447764,0.096638374,FALSE,4.359703825,0,FALSE,214.5457281,,
mp-752429,ScTlO3,20,Sc1 Tl1 O3,5.518153,5.681516,8.177845,90,90,90,ortho,Pnma,2.39E-05,-7.165380819,-2.455815972,0.078769002,FALSE,7.703033722,1.2891,TRUE,256.3874995,,
mp-7276,ScUS3,10,Sc1 U1 S3,3.75350386,6.400398772,9.22203523,90.0001007,90,107.0510791,ortho,Cmcm,5.7428999,-25.15981213,-2.070707882,0,TRUE,5.945328807,0,FALSE,211.8109622,"{'voigt': 79.919, 'reuss': 79.225, 'vrh': 79.572}","{'voigt': 41.394, 'reuss': 36.875, 'vrh': 39.135}"
mp-756546,ScVO3,20,Sc1 V1 O3,5.402772,7.81713,5.109025,89.99944111,90.00002182,90.00006846,ortho,Pnma,7.9999447,-9.254299816,-3.202248178,0.049391989,FALSE,4.429499293,1.5605,FALSE,215.7754359,,
mp-972978,ScVO3,5,Sc1 V1 O3,3.786401,3.786401,3.786401,90,90,90,cubic,Pm-3m,1.9933072,-8.577903116,-2.525851478,0.725788689,FALSE,4.401663411,0,FALSE,54.28499704,,
mp-1246967,ScWN3,20,Sc1 W1 N3,5.707052399,6.750560317,8.711637156,89.93581839,105.7218737,96.11014759,tri,P-1,0.0005648,-9.885290288,-1.024203774,0.135762279,FALSE,5.602060709,1.2255,FALSE,321.096533,,
mp-1186999,SiAgO3,5,Si1 Ag1 O3,3.621317,3.621317,3.621317,90,90,90,cubic,Pm-3m,0.153213,-6.277115192,-1.654687447,0.486040065,FALSE,6.432114179,0,FALSE,47.48972232,,
mp-972822,SiBO3,5,Si1 B1 O3,3.336259,3.336259,3.336259,90,90,90,cubic,Pm-3m,0.0001585,-6.378583398,-0.988864835,1.919687921,FALSE,3.885644915,0,FALSE,37.13464488,"{'voigt': 232.445, 'reuss': 232.445, 'vrh': 232.445}","{'voigt': 103.31, 'reuss': -54.15, 'vrh': 24.58}"
mp-972839,SiBO3,5,Si1 B1 O3,3.502656,3.502656,3.502656,90,90,90,cubic,Pm-3m,0.0613221,-6.38929876,-0.999580197,1.908972559,FALSE,3.357762118,0,FALSE,42.97268209,"{'voigt': 203.008, 'reuss': 203.008, 'vrh': 203.008}","{'voigt': 67.556, 'reuss': 39.733, 'vrh': 53.644}"
mp-972827,SiBiO3,5,Si1 Bi1 O3,3.798666,3.798666,3.798666,90,90,90,cubic,Pm-3m,0.0005132,-6.652173252,-1.820326181,0.722310424,FALSE,8.635714894,0,FALSE,54.8142314,"{'voigt': 130.571, 'reuss': 130.571, 'vrh': 130.571}","{'voigt': 92.897, 'reuss': 60.816, 'vrh': 76.857}"
mp-1209042,SiCCl3,30,Si1 C1 Cl3,9.596517176,9.596517176,9.653504712,84.01397088,84.01397088,101.0546715,mono,C2/m,0.0033787,-5.224021858,-1.184103157,0.142805605,FALSE,1.695316511,3.4239,FALSE,860.7050524,,
mp-769171,SiGeO3,80,Si1 Ge1 O3,5.420948,9.432472,20.06184,90,90,90,ortho,Pbca,7.61E-05,-7.45584185,-2.47739607,0.133299435,FALSE,3.851924207,3.0391,TRUE,1025.820865,,
mp-28289,SiH3F,20,Si1 H3 F1,7.994109,4.865885,8.650176744,64.92894667,90,90,mono,P2_1/c,0.0016789,-4.449088307,-0.944629044,0.020578798,FALSE,1.092025319,6.1692,FALSE,304.7762005,,
mp-28538,SiH3I,20,Si1 H3 I1,4.725467145,8.57542253,10.64149949,90,102.7791678,90,mono,P2_1/c,0,-3.708836837,-0.281870845,0,TRUE,2.495709267,4.2188,FALSE,420.5426887,,
mp-1016874,SiHgO3,5,Si1 Hg1 O3,3.664827,3.664827,3.664827,90,90,90,cubic,Pm-3m,0.0012399,-5.83582336,-1.720048744,0.497673056,FALSE,9.333758081,0,FALSE,49.22213363,"{'voigt': 221.487, 'reuss': 221.487, 'vrh': 221.487}","{'voigt': 98.828, 'reuss': 37.791, 'vrh': 68.309}"
mp-1186997,SiMoO3,5,Si1 Mo1 O3,3.645503,3.645503,3.645503,90,90,90,cubic,Pm-3m,3.9989593,-7.897829032,-1.674858801,0.895306562,FALSE,5.896102191,0,FALSE,48.4476125,,
mp-1219220,SiPN3,10,Si1 P1 N3,4.69664,5.275995,5.293046049,60.27041811,90,90,mono,P2_1,0.0001226,-9.893975509,-0.861556925,0.016148769,FALSE,2.947383559,4.3483,FALSE,113.8950707,,
mp-36053,SiPN3,20,Si1 P1 N3,5.302685307,5.302685307,9.419933792,89.90810573,89.90810573,120.2236457,mono,Cc,0.0015683,-9.886796927,-0.854378343,0.023327351,FALSE,2.933504677,3.7651,FALSE,228.8678532,,
mp-21723,SiPbO3,60,Si1 Pb1 O3,7.0522272,11.22191635,13.00114339,60.35943029,90,90,mono,P2/c,0,-7.392296107,-2.595926484,0,TRUE,6.312259446,3.1905,FALSE,894.2667611,,
mp-978489,SiPbO3,5,Si1 Pb1 O3,3.748178,3.748178,3.748178,90,90,90,cubic,Pm-3m,0.0006146,-6.968344168,-2.171974545,0.423951939,FALSE,8.933261804,1.1848,FALSE,52.65754672,"{'voigt': 199.931, 'reuss': 199.931, 'vrh': 199.931}","{'voigt': 139.472, 'reuss': 93.305, 'vrh': 116.389}"
mp-978490,SiPdO3,5,Si1 Pd1 O3,3.598276,3.598276,3.598276,90,90,90,cubic,Pm-3m,1.9946826,-6.653262066,-1.563445495,0.716183873,FALSE,6.504851023,0,FALSE,46.58900297,"{'voigt': 232.071, 'reuss': 232.071, 'vrh': 232.071}","{'voigt': 94.452, 'reuss': 79.679, 'vrh': 87.065}"
mp-776110,SiSnO3,60,Si1 Sn1 O3,7.049169,11.394763,13.09830116,60.05563922,90,90,mono,P2/c,2.20E-05,-7.442037582,-2.586283002,0.029296766,FALSE,4.257681888,2.6768,FALSE,911.6581951,,
mp-978493,SiSnO3,5,Si1 Sn1 O3,3.712219,3.712219,3.712219,90,90,90,cubic,Pm-3m,0.0001705,-6.981687404,-2.125932824,0.489646943,FALSE,6.323000798,0.7594,FALSE,51.15649343,"{'voigt': 203.42, 'reuss': 203.42, 'vrh': 203.42}","{'voigt': 137.796, 'reuss': 95.922, 'vrh': 116.859}"
mp-7144,Sm3AlC,5,Sm3 Al1 C1,5.01642188,5.01642188,5.01642188,90,90,90,cubic,Pm-3m,3.70E-06,-5.682542038,-0.256542093,0.002639175,FALSE,6.446545298,0,FALSE,126.2356906,,
mp-10674,Sm3AlN,5,Sm3 Al1 N1,5.468393,5.468393,5.468393,90,90,90,cubic,Pm-3m,0.0045684,-20.01012816,1.001796234,1.970402622,FALSE,4.996838062,0,FALSE,163.5231167,"{'voigt': 34.496, 'reuss': 34.496, 'vrh': 34.496}","{'voigt': 18.459, 'reuss': 3.282, 'vrh': 10.871}"
mp-1094052,Sm3AlN,5,Sm3 Al1 N1,4.90354893,4.90353862,4.90353862,90,90,90,cubic,Pm-3m,1.03E-05,-21.98053078,-0.968606388,0,TRUE,6.930183235,0,FALSE,117.9043188,,
mp-10602,Sm3GaC,5,Sm3 Ga1 C1,5.00216,5.00216,5.00216,90,90,90,cubic,Pm-3m,8.00E-07,-5.59850173,-0.315997746,0.022991253,FALSE,7.068898462,0,FALSE,125.16207,"{'voigt': 67.541, 'reuss': 67.541, 'vrh': 67.541}","{'voigt': 48.892, 'reuss': 48.536, 'vrh': 48.714}"
mp-20229,Sm3InC,5,Sm3 In1 C1,5.710743,5.710743,5.710743,90,90,90,cubic,Pm-3m,0.0056879,-3.646163034,1.582556494,1.872080728,FALSE,5.15264808,0,FALSE,186.242095,,
mp-19716,Sm3InN,5,Sm3 In1 N1,4.9428586,4.94285653,4.94285653,90,90,90,cubic,Pm-3m,6.32E-05,-25.28695203,-1.105729228,0,TRUE,7.97391367,0,FALSE,120.7630844,,
mp-19758,Sm3PbC,5,Sm3 Pb1 C1,5.80783,5.80783,5.80783,90,90,90,cubic,Pm-3m,0.0034647,-3.838206856,1.581207337,1.955614291,FALSE,5.681599335,0,FALSE,195.9032709,,
mp-10718,Sm3SnC,5,Sm3 Sn1 C1,5.73661,5.73661,5.73661,90,90,90,cubic,Pm-3m,0.0035376,-4.052777902,1.426021248,1.886555795,FALSE,5.11749421,0,FALSE,188.7843448,,
mp-1206990,Sm3SnN,5,Sm3 Sn1 N1,4.91656245,4.91656245,4.91656245,90,90,90,cubic,Pm-3m,9.00E-06,-6.367403964,-1.066682363,0,TRUE,8.156917192,0,FALSE,118.8460302,,
mp-10606,Sm3TlC,5,Sm3 Tl1 C1,5.04207852,5.04207852,5.04207852,90,90,90,cubic,Pm-3m,6.50E-06,-5.489774876,-0.338595673,0,TRUE,8.646784531,0,FALSE,128.1825225,"{'voigt': 66.659, 'reuss': 66.659, 'vrh': 66.659}","{'voigt': 50.009, 'reuss': 49.952, 'vrh': 49.981}"
mp-1075933,SmAgO3,5,Sm1 Ag1 O3,4.068937,4.068937,4.068937,90,90,90,cubic,Pm-3m,5.45E-05,-6.175713672,-1.694632306,0.423685474,FALSE,7.548294384,0,FALSE,67.36633133,,
mp-1219105,SmAl3Cu,5,Sm1 Al3 Cu1,6.06681949,6.06681949,6.06681949,139.74439,139.74439,58.24161222,tet,I4mm,0,-12.67200468,-0.516801622,0,TRUE,5.298943945,0,FALSE,92.39783841,,
mp-1208898,SmAl3Ni,20,Sm1 Al3 Ni1,4.07345316,8.15999999,10.70423674,90,90,90,ortho,Pnma,4.10E-06,-4.932730161,-0.5856401,0,TRUE,5.41371669,0,FALSE,355.8021685,,
mp-1187025,SmAlO3,20,Sm1 Al1 O3,5.312557,5.358413,7.531084,90,90,90,ortho,Pnma,0,-8.354219321,-3.692610325,0.005184445,FALSE,6.981513735,4.0771,FALSE,214.386423,,
mp-7405,SmAlO3,20,Sm1 Al1 O3,5.28319658,5.2813461,7.46953229,90,90,90,ortho,Pnma,1.00E-07,-8.359403766,-3.69779477,0,TRUE,7.181448769,4.8614,FALSE,208.4178005,"{'voigt': 181.756, 'reuss': 177.786, 'vrh': 179.771}","{'voigt': 113.211, 'reuss': 108.547, 'vrh': 110.879}"
mp-1173486,SmBO3,20,Sm1 B1 O3,4.298529,8.035377322,8.868765,90,90,122.3405535,ortho,Pnma,0.0013924,-8.700153827,-3.451781642,0.036507844,FALSE,5.368101982,4.6744,TRUE,258.8129878,,
mp-760477,SmBO3,10,Sm1 B1 O3,4.052414513,4.052414513,8.811024,90,90,117.3699414,ortho,Ama2,0,-8.675841143,-3.427468959,0.060820528,FALSE,5.406074521,4.3574,FALSE,128.4975362,,
mp-8627,SmBO3,20,Sm1 B1 O3,6.238567888,6.494456475,6.490059025,93.07748134,107.5582598,107.9284307,tri,P-1,0,-8.736661671,-3.488289486,0,TRUE,5.902162905,5.2713,FALSE,235.3941317,,
mp-3428,SmBPd3,5,Sm1 B1 Pd3,4.359961,4.359961,4.359961,90,90,90,cubic,Pm-3m,8.35E-05,-21.80732823,-0.615200365,0.107939257,FALSE,9.625699657,0,FALSE,82.8796319,"{'voigt': 137.352, 'reuss': 137.352, 'vrh': 137.352}","{'voigt': 16.799, 'reuss': -10.176, 'vrh': 3.312}"
mp-4982,SmBRh3,5,Sm1 B1 Rh3,4.20876944,4.20876944,4.20876944,90,90,90,cubic,Pm-3m,0.0014627,-7.432987418,-0.734807115,0,TRUE,10.46592416,0,FALSE,74.55304842,"{'voigt': 175.916, 'reuss': 175.916, 'vrh': 175.916}","{'voigt': 81.116, 'reuss': 75.704, 'vrh': 78.41}"
mp-972448,SmBS3,20,Sm1 B1 S3,6.05639122,7.40821426,8.86847161,90,90,90,ortho,Pna2_1,0,-6.297298028,-1.534686706,0.01549881,FALSE,4.2961954,2.4295,TRUE,397.9021042,,
mp-978503,SmBeO3,5,Sm1 Be1 O3,3.626649,3.626649,3.626649,90,90,90,cubic,Pm-3m,0.9998772,-7.548032662,-2.887656259,0.284462296,FALSE,7.219036706,0,FALSE,47.69980187,,
mp-1219113,SmBiS3,20,Sm1 Bi1 S3,4.0460441,10.90302464,11.01537037,90,90,90,ortho,Pnma,0,-5.698497573,-1.493757744,0.010728265,FALSE,6.226650809,1.6508,FALSE,485.933354,,
mp-1219075,SmBiTe3,5,Sm1 Bi1 Te3,10.98769055,10.98769055,10.98769005,23.32620416,23.32620416,23.32620596,trig,R3m,0,-33.85543986,-0.958065657,0.029470171,FALSE,6.748637945,0.9818,TRUE,182.6076813,,
mp-20016,SmCoO3,20,Sm1 Co1 O3,5.2555446,5.38013421,7.49230809,90,90,90,ortho,Pnma,0,-7.906673629,-2.567496455,0,TRUE,8.066922551,0,FALSE,211.8490218,,
mp-22549,SmCoO3,5,Sm1 Co1 O3,3.756973,3.756973,3.756973,90,90,90,cubic,Pm-3m,6.80E-06,-7.776120518,-2.436943344,0.130553111,FALSE,8.056754629,0.8039,FALSE,53.02909578,,
mp-569163,SmCoSb3,40,Sm1 Co1 Sb3,6.183406,12.107378,12.597188,90,90,90,ortho,Pbcm,0.0066836,-5.520396468,-0.672595153,0.013374388,FALSE,8.093436627,0,FALSE,943.0863856,,
mp-972659,SmCoSi3,5,Sm1 Co1 Si3,5.57469554,5.57469554,5.57469554,137.0459383,137.0459383,62.36737665,tet,I4mm,0,-6.248741426,-0.623150037,0,TRUE,6.133592956,0,FALSE,79.47229952,"{'voigt': 136.665, 'reuss': 135.753, 'vrh': 136.209}","{'voigt': 72.225, 'reuss': 72.098, 'vrh': 72.161}"
mp-13009,SmCrGe3,10,Sm1 Cr1 Ge3,6.133340649,6.133340649,5.713972,90,90,120.000007,hex_,P6_3/mmc,2.7664745,-6.03225181,-0.384108376,0.04239723,FALSE,7.498094421,0,FALSE,186.1499319,,
mp-1105788,SmCrO3,20,Sm1 Cr1 O3,5.35209304,5.54722294,7.65437822,90,90,90,ortho,Pnma,12.0000004,-9.014175284,-3.17107196,0,TRUE,7.317368916,2.4802,FALSE,227.2527737,,
mp-19257,SmCrO3,5,Sm1 Cr1 O3,3.877573,3.877573,3.877573,90,90,90,cubic,Pm-3m,2.9999808,-8.816893528,-2.973790204,0.197281756,FALSE,7.130569292,1.7362,FALSE,58.30152946,,
mp-15932,SmCrS3,20,Sm1 Cr1 S3,3.7509318,7.80132717,12.91934762,90,90,90,ortho,Pnma,11.9978846,-7.037488724,-1.680146263,0.001032732,FALSE,5.245410981,0,FALSE,378.0491303,,
mp-1208660,SmCrSb3,20,Sm1 Cr1 Sb3,6.086664,6.231522,13.037691,90,90,90,ortho,Pbcm,8.7188645,-24.96397004,-0.578927262,0.016109635,FALSE,7.624387342,0,FALSE,494.5089368,,
mp-1076706,SmCuO3,5,Sm1 Cu1 O3,3.809085,3.809085,3.809085,90,90,90,cubic,Pm-3m,0.0056199,-7.020050262,-2.287715098,0.124386208,FALSE,7.869181608,0,FALSE,55.26650387,,
mp-770767,SmCuO3,20,Sm1 Cu1 O3,5.28006365,6.29098458,7.09825327,90,90,90,ortho,Pnma,0,-7.144436471,-2.412101307,0,TRUE,7.378061688,0.1218,FALSE,235.7812521,,
mp-772548,SmCuO3,10,Sm1 Cu1 O3,5.334263108,5.334263108,5.334263034,62.4445276,62.4445276,62.44452435,trig,R-3c,0.0008517,-7.110961194,-2.37862603,0.033475276,FALSE,7.685406909,0,FALSE,113.176091,,
mp-756452,SmDyO3,20,Sm1 Dy1 O3,5.801912,6.059173,8.477487,90,90,90,ortho,Pnma,6.98E-05,-8.694715269,-3.858546333,0.074952791,FALSE,8.042555098,4.822,TRUE,298.0242628,,
mp-754203,SmErO3,20,Sm1 Er1 O3,5.743181,6.000227,8.429139,90,90,90,ortho,Pnma,8.93E-05,-8.72604912,-3.900011528,0.059511754,FALSE,8.360501077,4.8916,TRUE,290.4714148,,
mp-1099588,SmFeO3,5,Sm1 Fe1 O3,3.909141,3.909141,3.909141,90,90,90,cubic,Pm-3m,5.0002742,-8.187931516,-2.581433444,0.222370185,FALSE,7.066202914,0.7235,FALSE,59.73708222,,
mp-1105437,SmFeO3,20,Sm1 Fe1 O3,7.90017,6.194917,6.619385,90,90,90,ortho,Pnma,19.999571,-8.075469965,-2.468971893,0.334831737,FALSE,5.211953493,0.1274,FALSE,323.9586424,,
mp-20243,SmFeO3,20,Sm1 Fe1 O3,5.388497242,5.6492765,7.715669676,89.99959882,90.00374659,89.99995895,ortho,Pnma,20.008487,-8.410301702,-2.80380363,0,TRUE,7.188793033,1.545,TRUE,234.8735553,,
mp-1201728,SmFeSb3,40,Sm1 Fe1 Sb3,6.152078,12.136628,12.721705,90,90,90,ortho,Pbcm,0.0874242,-5.71104036,-0.595918147,0.004467354,FALSE,7.992427877,0,FALSE,949.8722371,,
mp-1218984,SmGa3Ag,5,Sm1 Ga3 Ag1,4.22360167,4.22360167,6.19404599,70.06581825,70.06581825,90,tet,I-4m2,8.00E-07,-17.61057521,-0.527149345,0,TRUE,8.017708138,0,FALSE,96.80214057,,
mp-1219033,SmGa3Au,5,Sm1 Ga3 Au1,4.244801622,4.244801622,6.201054685,70.12005672,70.12005672,90.19452555,tet,I4mm,2.00E-07,-3.994930242,-0.579579002,0,TRUE,9.437745938,0,FALSE,97.91348896,,
mp-1219014,SmGa3Cu,5,Sm1 Ga3 Cu1,6.040623355,6.040623355,6.040623355,140.1615011,140.1615011,57.60816426,tet,I-4m2,0,-15.54830319,-0.566693558,0,TRUE,7.834106191,0,FALSE,89.67616069,,
mp-1219023,SmGa3Ni,5,Sm1 Ga3 Ni1,6.046686036,6.046686036,6.046686036,140.379089,140.379089,57.27815595,tet,I-4m2,1.00E-06,-4.448868922,-0.532266746,0.051989158,FALSE,7.79025918,0,FALSE,89.14653771,,
mp-1219024,SmGa3Pd,5,Sm1 Ga3 Pd1,6.12812203,6.12812203,6.12812203,140.2990542,140.2990542,57.39950779,tet,I-4m2,0,-4.475526392,-0.67897519,0,TRUE,8.310406804,0,FALSE,93.10332644,,
mp-1219019,SmGa3Pt,5,Sm1 Ga3 Pt1,6.140150795,6.140150795,6.140150795,140.5606709,140.5606709,57.00298115,tet,I-4m2,0,-4.690881952,-0.716080447,0.00175275,FALSE,9.940591924,0,FALSE,92.64604768,,
mp-978504,SmGaO3,5,Sm1 Ga1 O3,3.862137,3.862137,3.862137,90,90,90,cubic,Pm-3m,0.0007983,-7.431014212,-2.912901177,0.210192991,FALSE,7.727382864,2.872,FALSE,57.60803023,"{'voigt': 182.901, 'reuss': 182.901, 'vrh': 182.901}","{'voigt': 103.146, 'reuss': 103.126, 'vrh': 103.136}"
mp-1219055,SmGdS3,20,Sm1 Gd1 S3,3.96655604,7.40210746,15.38183537,90,90,90,ortho,Pnma,27.9999991,-8.620073582,-2.378116166,0.066398143,FALSE,5.938867582,0.6825,FALSE,451.624131,,
mp-978926,SmGeO3,5,Sm1 Ge1 O3,3.946684,3.946684,3.946684,90,90,90,cubic,Pm-3m,0.0008086,-7.296009504,-2.458910103,0.508299215,FALSE,7.320124012,0,FALSE,61.47479159,"{'voigt': 145.68, 'reuss': 145.68, 'vrh': 145.68}","{'voigt': 69.576, 'reuss': 68.452, 'vrh': 69.014}"
mp-1206999,SmGePd3,5,Sm1 Ge1 Pd3,4.714479,4.714479,4.714479,90,90,90,cubic,Pm-3m,0.0187397,-5.442807,-0.466555116,0.339889576,FALSE,8.59321248,0,FALSE,104.7854823,,
mp-755717,SmHoO3,20,Sm1 Ho1 O3,5.765116,6.024105,8.446944,90,90,90,ortho,Pnma,0.0022105,-8.709853042,-3.877823319,0.066932637,FALSE,8.225467011,4.5947,TRUE,293.359528,,
mp-1209783,SmIn3Pt,40,Sm1 In3 Pt1,9.82521714,9.82521714,9.82521714,90,90,90,cubic,Pm-3n,0.0162315,-4.377297984,-0.563849847,0.006781797,FALSE,9.662677812,0,FALSE,948.476274,,
mp-752437,SmInO3,20,Sm1 In1 O3,5.622973,5.952571,8.238917,90,90,90,ortho,Pnma,0,-7.36194542,-2.897616841,0.030393087,FALSE,7.54322616,2.9444,TRUE,275.7659939,,
mp-1101371,SmLuO3,20,Sm1 Lu1 O3,5.699036,5.958661,8.299142,90,90,90,ortho,Pnma,3.26E-05,-8.770153936,-3.953322615,0.039545404,FALSE,8.798590817,4.7782,TRUE,281.827439,,
mp-1208832,SmLuSe3,20,Sm1 Lu1 Se3,4.07736948,11.48893361,11.77183871,71.12824409,90,90,mono,P2_1/m,0,-24.324468,-2.174970956,0,TRUE,7.156450734,0.7935,TRUE,521.8042975,,
mp-1232244,SmMgS3,10,Sm1 Mg1 S3,6.966321517,6.966321517,6.822820184,74.23197223,74.23197223,110.9817349,mono,C2/m,1.9999869,-5.28642254,-1.533595569,0.373260237,FALSE,3.316061329,0.2106,FALSE,271.2697788,,
mp-1232277,SmMgS3,30,Sm1 Mg1 S3,6.855687,6.855686661,17.754389,90,90,119.9999968,trig,R-3,4.0884582,-5.35449192,-1.60166495,0.305190857,FALSE,3.734280217,0,FALSE,722.6671575,,