mp_id,formula,sites,composition,a_edge (angstrom),b_edge (angstrom),c_edge (angstrom),alpha_ang (deg),beta_ang (deg),gamma_ang (deg),crystal_system,space_group,total_magnetisation (bohr),energy_per_atom (eV/atom),formation_energy (eV/atom),energy_above_hull (eV/atom),stable,density (g/cc),band_gap (eV),direct_bandgap,volume (cubic-angstrom),bulk_modulus (GPa),shear_modulus (GPa)
mp-1405134,TiAlO3,10,Ti1 Al1 O3,3.180333102,3.180333102,12.059897,90,90,119.9999813,hex_,P6_3/mmc,0.0499594,-8.404063179,-3.107073007,0.257922315,FALSE,3.86209714,0,FALSE,105.6378446,,
mp-1475723,TiAlO3,5,Ti1 Al1 O3,3.860804,3.860804,3.860804,90,90,90,cubic,Pm-3m,6.40E-05,-7.666068926,-2.369078754,0.995916568,FALSE,3.544699835,0,FALSE,57.54840132,,
mp-774520,TiAlO3,10,Ti1 Al1 O3,5.439791859,5.439791859,5.439791714,53.9898891,53.9898891,53.98988548,trig,R-3,2.0004032,-8.595938124,-3.298947952,0.06604737,FALSE,4.169728033,0,FALSE,97.84417929,,
mp-9716,TiBO3,10,Ti1 B1 O3,5.6866017,5.6866017,5.686601237,48.84993591,48.84993591,48.84993889,trig,R-3c,1.9982994,-8.884257016,-3.000503655,0.07640892,FALSE,3.701937126,0,FALSE,95.7012459,,
mp-1187465,TiBeO3,5,Ti1 Be1 O3,3.388902,3.388902,3.388902,90,90,90,cubic,Pm-3m,0.0010819,-7.608062538,-2.312304959,1.033670633,FALSE,4.47459677,0,FALSE,38.92037628,,
mp-1016846,TiCdO3,5,Ti1 Cd1 O3,3.886978,3.886978,3.886978,90,90,90,cubic,Pm-3m,4.40E-05,-7.213101972,-2.473224928,0.198236043,FALSE,5.889148359,0,FALSE,58.72678793,"{'voigt': 181.549, 'reuss': 181.549, 'vrh': 181.549}","{'voigt': 75.946, 'reuss': 75.17, 'vrh': 75.558}"
mp-1101047,TiCdO3,10,Ti1 Cd1 O3,5.399254452,17.55765384,2.999421886,96.56141878,89.98172708,79.78244496,tri,P1,0.2896073,-6.296802835,-1.556925791,1.11453518,FALSE,2.488707032,0,FALSE,277.9361028,,
mp-1179263,TiCdO3,20,Ti1 Cd1 O3,3.852382,7.067657,9.41505,90,90,90,ortho,Pmc2_1,0.0019335,-7.191271872,-2.451394827,0.220066144,FALSE,5.396613231,1.4505,FALSE,256.3465284,,
mp-1179551,TiCdO3,10,Ti1 Cd1 O3,17.91460995,6.832166367,9.313683588,131.5244066,155.3696142,30.30583296,tri,P-1,0.0005567,-7.245404959,-2.505527915,0.165933056,FALSE,3.54002967,2.7764,FALSE,195.3942758,,
mp-13641,TiCdO3,10,Ti1 Cd1 O3,5.823052726,5.823053588,5.823052171,53.69843079,53.69841846,53.69841719,trig,R-3,0,-7.411338015,-2.671460971,0,TRUE,5.810462307,2.9057,FALSE,119.0441478,"{'voigt': 157.547, 'reuss': 654326.353, 'vrh': 327241.95}","{'voigt': 1551942321.691, 'reuss': -496931331.173, 'vrh': 527505495.259}"
mp-14550,TiCdO3,20,Ti1 Cd1 O3,5.369678,5.486639,7.718095,90,90,90,ortho,Pnma,0.0004519,-7.368795386,-2.628918342,0.042542629,FALSE,6.083926864,2.1213,FALSE,227.386538,,
mp-20940,TiCdO3,20,Ti1 Cd1 O3,5.400747,5.523009,7.692163,90,90,90,ortho,Pmc2_1,1.69E-05,-7.371769848,-2.631892803,0.039568167,FALSE,6.02935245,2.4636,TRUE,229.444717,"{'voigt': 149.662, 'reuss': 144.199, 'vrh': 146.93}","{'voigt': 65.587, 'reuss': 60.024, 'vrh': 62.805}"
mp-22345,TiCdO3,5,Ti1 Cd1 O3,4.09528,4.09528,4.09528,90,90,90,cubic,Pm-3m,1.0540207,-5.403051798,-0.663174754,2.008286217,FALSE,5.035445984,0,FALSE,68.68324432,,
mp-5052,TiCdO3,20,Ti1 Cd1 O3,5.31246054,5.42898714,7.64691644,90,90,90,ortho,Pna2_1,0,-7.372593441,-2.632716397,0.038744574,FALSE,6.272603839,2.4156,TRUE,220.5468578,,
mp-1179381,TiCoO3,10,Ti1 Co1 O3,11.60702256,5.835899165,5.549275341,117.6860924,138.4654033,43.43633441,tri,P-1,6.0000001,-8.470397449,-2.495839099,0.129342192,FALSE,3.045965095,2.2549,FALSE,168.7798608,,
mp-19424,TiCoO3,10,Ti1 Co1 O3,5.455201438,5.454490871,5.455229502,55.22301684,55.20988828,55.2119534,trig,R-3,6.0000001,-8.596584934,-2.622026583,0.003154708,FALSE,5.03959243,0,FALSE,102.0117345,,
mp-755606,TiCrO3,20,Ti1 Cr1 O3,5.118034,5.393204,7.614145,90,90,90,ortho,Pnma,16.0013855,-9.253288666,-2.774804166,0.118891695,FALSE,4.672964173,0.4277,FALSE,210.1702097,,
mp-756083,TiCrO3,30,Ti1 Cr1 O3,5.209415,5.232513861,14.20909848,92.12796905,90.620491,119.6975122,tri,P1,24.0071822,-9.248453735,-2.769969235,0.123726626,FALSE,4.384181615,0,FALSE,336.0209316,,
mp-1147748,TiCuO3,5,Ti1 Cu1 O3,4.013939,4.013939,3.777672,90,90,90,tet,P4/mmm,6.78E-05,-7.59642085,-2.22870451,0.253246739,FALSE,4.349127552,0,FALSE,60.86474175,,
mp-1187469,TiCuO3,5,Ti1 Cu1 O3,3.850773,3.850773,3.850773,90,90,90,cubic,Pm-3m,0.9993563,-7.303850848,-1.936134508,0.545816741,FALSE,4.635794483,0,FALSE,57.10100528,,
mp-1206985,TiFe3N,5,Ti1 Fe3 N1,3.738023,3.738023,3.738023,90,90,90,cubic,Pm-3m,1.6523892,-8.668377978,-0.3396113,0.418833782,FALSE,7.293451067,0,FALSE,52.23070739,,
mp-1179354,TiFeO3,10,Ti1 Fe1 O3,12.02535833,6.051838675,6.173596397,127.2761978,145.3382901,39.49498585,tri,P-1,8.0000064,-8.896343262,-2.654464014,0.075248779,FALSE,3.110330837,2.5901,FALSE,161.9896578,,
mp-1277107,TiFeO3,20,Ti1 Fe1 O3,5.130769391,5.554206937,8.954461721,106.2221753,89.46683158,115.5815896,tri,P-1,4.00E-07,-8.971592041,-2.729712793,0,TRUE,4.597795231,2.2487,FALSE,219.1665363,,
mp-19074,TiFeO3,10,Ti1 Fe1 O3,2.920566,5.011858594,7.256845,90,90,106.939728,ortho,Cmcm,7.9999615,-8.848473615,-2.606594367,0.123118426,FALSE,4.958433185,1.6437,FALSE,101.6130316,,
mp-19270,TiFeO3,10,Ti1 Fe1 O3,5.421784203,5.421782928,5.421792388,56.01553175,56.01550788,56.01556114,trig,R3c,7.9999951,-8.939818291,-2.697939043,0.03177375,FALSE,4.925385335,2.0522,FALSE,102.2948244,,
mp-19417,TiFeO3,10,Ti1 Fe1 O3,5.442621798,5.442617915,5.442627718,55.71719058,55.71717239,55.71721465,trig,R-3,8.000182,-8.959550826,-2.717671578,0.012041215,FALSE,4.907110856,2.7436,FALSE,102.6757786,,
mp-20073,TiFeO3,20,Ti1 Fe1 O3,5.232802,5.291059,7.540401,90,90,90,ortho,Pnma,0,-8.899765688,-2.65788644,0.071826353,FALSE,4.826724612,1.5848,FALSE,208.771566,,
mp-694948,TiFeO3,80,Ti1 Fe1 O3,5.600984767,5.632906611,44.21122087,54.84026442,55.32774308,54.40483414,tri,P1,1.2390711,-8.256230566,-2.014351317,0.715361475,FALSE,4.643159837,0,FALSE,868.1009408,,
mp-780260,TiGeO3,10,Ti1 Ge1 O3,7.081934908,7.081934908,7.081934588,41.73268927,41.73268927,41.73269531,trig,R-3,0.0001215,-8.155536432,-2.683055855,0.068774116,FALSE,3.933019147,1.1349,FALSE,142.2873661,,
mp-1105715,TiGeS3,20,Ti1 Ge1 S3,3.47928158,9.11405508,13.69769828,90,90,90,ortho,Pnma,0,-6.167187987,-1.180468272,0,TRUE,3.313776287,0.3237,FALSE,434.3589979,,
mp-1016842,TiHgO3,5,Ti1 Hg1 O3,3.921312,3.921312,3.921312,90,90,90,cubic,Pm-3m,0.0065701,-6.728773948,-2.118964534,0.23989173,FALSE,8.164206384,0,FALSE,60.2967904,"{'voigt': 174.512, 'reuss': 174.512, 'vrh': 174.512}","{'voigt': 54.017, 'reuss': 53.992, 'vrh': 54.005}"
mp-7607,TiHgO3,10,Ti1 Hg1 O3,5.446532724,5.446532724,5.577510371,60.77382908,60.77382908,59.9999912,trig,R-3c,0,-6.860181421,-2.250372007,0.108484257,FALSE,8.319374843,1.0936,TRUE,118.3443348,,
mp-19082,TiMnO3,10,Ti1 Mn1 O3,5.575393352,5.575393558,5.575393013,54.84196489,54.84195498,54.84195199,trig,R-3,10.0000004,-9.334882121,-2.954604056,0,TRUE,4.644506556,2.0049,FALSE,107.8326305,,
mp-19376,TiMnO3,10,Ti1 Mn1 O3,5.481156187,5.481155542,5.481156426,56.35558947,56.35559275,56.35558907,trig,R3c,9.9999843,-9.298563009,-2.918284944,0.036319112,FALSE,4.697118378,1.7772,FALSE,106.624811,,
mp-2234285,TiMnO3,10,Ti1 Mn1 O3,10.43801587,3.297898927,6.746369484,118.7066924,145.6178822,62.13521833,mono,C2/m,10.0000687,-9.135411479,-2.755133414,0.199470642,FALSE,4.399474972,1.3274,FALSE,113.8384381,,
mp-556925,TiMnO3,20,Ti1 Mn1 O3,5.205898,5.398427,7.561347,90,90,90.00006486,ortho,Pnma,4.80E-06,-9.274892319,-2.894614254,0.059989802,FALSE,4.713654202,1.5326,FALSE,212.5015277,,
mp-697089,TiMnO3,10,Ti1 Mn1 O3,10.20861305,3.1023779,6.350027253,115.9211377,146.4003857,63.89917404,tri,P-1,6.7291128,-8.471604507,-2.091326442,0.863277614,FALSE,5.062633024,0,FALSE,98.92665674,,
mp-743867,TiMnO3,10,Ti1 Mn1 O3,3.271871,5.957034626,6.173221757,100.5993646,105.3099801,92.30158368,tri,P-1,10.0003022,-9.134469726,-2.754191661,0.200412395,FALSE,4.409899644,1.2289,FALSE,113.5693326,,
mp-1246065,TiMoN3,20,Ti1 Mo1 N3,10.52231057,5.085708066,10.0011437,132.2965973,109.8770841,104.1578716,tri,P-1,5.00E-07,-9.618662941,-0.867467869,0.113343383,FALSE,4.525079427,0,FALSE,272.7670655,,
mp-1216784,TiMoS3,10,Ti1 Mo1 S3,3.276855,6.157155,8.74822668,74.75831358,90,90,mono,P2_1/m,6.53E-05,-7.598895304,-1.367651138,0.041086733,FALSE,4.680452598,0,FALSE,170.2966492,,
mp-18732,TiNiO3,10,Ti1 Ni1 O3,5.41866629,5.418698845,5.418672895,55.29147001,55.29143615,55.29128464,trig,R-3,4.0000001,-8.300620009,-2.596717667,0,TRUE,5.123127762,0,FALSE,100.1929311,,
mp-531689,TiNiO3,60,Ti1 Ni1 O3,5.50517938,5.499397713,33.01173662,55.03462497,54.94943479,54.94504403,tri,P1,23.9967487,-8.2846799,-2.580777558,0.015940109,FALSE,4.934833774,1.4963,FALSE,624.0954127,,
mp-675030,TiNiO3,40,Ti1 Ni1 O3,5.503347,9.02318311,9.025730456,68.39944746,84.67834924,84.88082678,tri,P1,15.9999816,-8.280300979,-2.576398636,0.02031903,FALSE,4.957154613,2.3354,FALSE,414.1901771,,
mp-690546,TiNiO3,30,Ti1 Ni1 O3,5.012767111,5.422443761,12.47200758,93.13921939,90.20380297,117.3371832,tri,P1,11.9999999,-8.282212311,-2.578309968,0.018407698,FALSE,5.123835267,2.2715,FALSE,300.537289,,
mp-698587,TiNiO3,50,Ti1 Ni1 O3,5.062602,5.489297899,21.01008739,94.29600298,89.87375336,117.3619654,tri,P1,19.9998453,-8.280607195,-2.576704853,0.020012814,FALSE,4.966626182,1.7082,FALSE,516.7503734,,
mp-850194,TiNiO3,10,Ti1 Ni1 O3,5.443177577,5.443178871,5.44317851,54.71926988,54.71928209,54.71897245,trig,R3c,0,-8.286667864,-2.582765522,0.013952145,FALSE,5.132560035,0,FALSE,100.0088033,,
mp-989613,TiPN3,5,Ti1 P1 N3,5.054459861,5.054459861,2.83485,90,90,116.1500652,ortho,Amm2,3.73E-05,-10.892098,-1.026880931,0.030168741,FALSE,3.087106688,0.5282,FALSE,65.01044612,"{'voigt': 187.657, 'reuss': 169.763, 'vrh': 178.71}","{'voigt': 79.442, 'reuss': 45.72, 'vrh': 62.581}"
mp-989624,TiPN3,20,Ti1 P1 N3,6.369055156,6.369055156,4.960984612,81.45446686,81.45446686,85.57015415,mono,C2/c,0,-10.92226674,-1.057049673,0,TRUE,4.085692905,0.5396,FALSE,196.4848437,,
mp-1106215,TiPbO3,20,Ti1 Pb1 O3,3.791365266,9.009651605,9.011379207,87.46602168,77.85201053,77.86351118,tet,I4/m,0,-8.015441889,-2.725037469,0.005552317,FALSE,6.842308037,2.316,TRUE,294.1999113,,
mp-19845,TiPbO3,5,Ti1 Pb1 O3,3.969049,3.969049,3.969049,90,90,90,cubic,Pm-3m,0.0001673,-7.97977246,-2.68936804,0.041221746,FALSE,8.048700857,1.585,FALSE,62.52581792,,
mp-20459,TiPbO3,5,Ti1 Pb1 O3,3.8795519,3.8795519,4.28588762,90,90,90,tet,P4mm,0,-8.020994206,-2.730589786,0,TRUE,7.801556472,1.813,FALSE,64.50656432,,
mp-996940,TiReN3,10,Ti1 Re1 N3,5.575193106,5.575193106,5.57519244,54.48762034,54.48762034,54.48761985,trig,R3c,0.0001037,-19.26630809,-0.719383345,0.081409654,FALSE,8.586445955,0,FALSE,106.7880801,,
mp-1018639,TiSnO3,5,Ti1 Sn1 O3,3.950731,3.950731,3.950731,90,90,90,cubic,Pm-3m,0.0001412,-7.946378162,-2.596588785,0.160125448,FALSE,5.778248869,1.0452,FALSE,61.66409762,"{'voigt': 175.285, 'reuss': 175.285, 'vrh': 175.285}","{'voigt': 85.65, 'reuss': 85.63, 'vrh': 85.64}"
mp-754246,TiSnO3,10,Ti1 Sn1 O3,7.595236879,7.595236881,7.595237497,39.10563751,39.10563897,39.10563893,trig,R-3,0,-8.104400851,-2.754611474,0.002102759,FALSE,4.544839624,1.1086,FALSE,156.7978331,"{'voigt': -33.02, 'reuss': -3905.981, 'vrh': -1969.5}","{'voigt': 648713784553.35, 'reuss': -3183408.646, 'vrh': 324355300572.352}"
mp-1187488,TiTeO3,5,Ti1 Te1 O3,3.96247,3.96247,3.96247,90,90,90,cubic,Pm-3m,1.80E-06,-7.13092831,-1.954392125,0.598959147,FALSE,5.964321375,0,FALSE,62.21540915,,
mp-1216763,TiVO3,10,Ti1 V1 O3,5.04364651,5.541768605,5.043644669,117.0682451,120.0011923,62.93141434,trig,R3c,6,-9.394272778,-3.029616558,0,TRUE,4.69376623,0,FALSE,103.8732006,,
mp-753428,TiVO3,20,Ti1 V1 O3,5.150667,5.552054711,7.621710655,83.97212827,89.78397071,89.88745281,tri,P1,10.0032291,-9.305716535,-2.941060314,0.088556244,FALSE,4.498801514,0,FALSE,216.7495142,,
mp-755657,TiVO3,10,Ti1 V1 O3,5.485694758,5.486356486,5.486138244,55.53961709,55.53771498,55.53513502,trig,R-3,6.001692,-9.36486496,-3.00020874,0.029407818,FALSE,4.658575784,0,FALSE,104.6578491,,
mp-1246544,TiWN3,20,Ti1 W1 N3,5.38318786,8.070725084,9.44759355,82.96032964,120.9576666,109.2194843,tri,P-1,0.0013476,-19.09384452,-0.755483834,0.300235536,FALSE,5.479331928,0,FALSE,331.817491,,
mp-1016927,TiZnO3,5,Ti1 Zn1 O3,3.843088,3.843088,3.843088,90,90,90,cubic,Pm-3m,0.0034797,-7.083898968,-2.28407524,0.537117677,FALSE,4.718163714,0,FALSE,56.75981712,,
mp-1078470,TiZnO3,10,Ti1 Zn1 O3,5.517323487,5.517323487,5.517323383,55.54717601,55.54717601,55.54717864,trig,R3c,9.24E-05,-7.565642529,-2.765818801,0.055374116,FALSE,5.029886833,2.828,FALSE,106.4843478,,
mp-1343137,TiZnO3,20,Ti1 Zn1 O3,5.145792,5.283548,7.569575,90,90,90,ortho,Pnma,0.0015318,-7.516832013,-2.717008285,0.104184632,FALSE,5.205046384,0,FALSE,205.8019005,,
mp-14142,TiZnO3,10,Ti1 Zn1 O3,5.550590565,5.550590565,5.550590796,55.03777136,55.03777136,55.03776657,trig,R-3,0.0001076,-7.592381316,-2.792557588,0.028635329,FALSE,5.007411138,3.107,FALSE,106.9623013,,
mp-635713,TiZnO3,10,Ti1 Zn1 O3,5.54714,5.674907809,5.916983532,65.48953513,63.99551654,68.24211124,tri,P-1,0.0001165,-7.525225239,-2.725401511,0.095791406,FALSE,3.613922061,3.1234,FALSE,148.2058025,"{'voigt': 71.59, 'reuss': 59.451, 'vrh': 65.52}","{'voigt': 28.669, 'reuss': 21.521, 'vrh': 25.095}"
mp-998154,TlAgBr3,5,Tl1 Ag1 Br3,5.408564108,5.408564108,5.406525598,89.88538659,89.88538659,89.90345912,mono,Cm,0.0006302,-2.838739506,-0.813689626,0.055665226,FALSE,5.795348826,0,FALSE,158.153889,,
mp-998608,TlAgBr3,10,Tl1 Ag1 Br3,7.612962191,7.612962191,7.61296313,60.58479749,60.58479749,60.58480322,trig,R3c,0.0025369,-2.845584166,-0.820534286,0.048820566,FALSE,5.798882553,0,FALSE,316.1150262,,
mp-998610,TlAgCl3,5,Tl1 Ag1 Cl3,5.058045524,5.057487569,5.053683758,89.99291913,89.97740306,89.95692535,tet,P4mm,0.116334,-3.16315783,-1.011153875,0.015710949,FALSE,5.376922233,0,FALSE,129.2782486,,
mp-998748,TlAgCl3,10,Tl1 Ag1 Cl3,7.225175085,7.225175085,7.225175351,60.51969704,60.51969704,60.51969785,trig,R3c,0.0006574,-3.162428853,-1.010424898,0.016439926,FALSE,5.152151247,0,FALSE,269.8364452,,
mp-1400626,TlAgF3,5,Tl1 Ag1 F3,4.427712744,4.427712744,4.429410419,89.53279777,89.53279777,89.58829728,trig,R3m,0.0006769,-18.39094766,-1.609718592,0.014893153,FALSE,7.061562665,0,FALSE,86.82902292,,
mp-998152,TlAgF3,5,Tl1 Ag1 F3,4.426805242,4.428619645,4.429410081,89.89551542,89.16991728,89.58828776,mono,Cm,0.0004134,-18.38953353,-1.608304462,0.016307283,FALSE,7.061849825,0,FALSE,86.82549214,,
mp-1187494,TlBO3,5,Tl1 B1 O3,3.53491,3.53491,3.53491,90,90,90,cubic,Pm-3m,0.0018869,-5.618110908,-0.839161528,1.110085281,FALSE,9.894355808,0,FALSE,44.17078148,,
mp-28809,TlBS3,20,Tl1 B1 S3,12.170077,5.831758,7.067629715,66.32774426,90,90,mono,P2_1/c,8.13E-05,-4.966497093,-0.673308575,0.006876568,FALSE,4.502134237,1.8034,FALSE,459.4035365,,
mp-29959,TlBSe3,10,Tl1 B1 Se3,6.207316083,7.171495639,7.161215721,109.1490773,103.5047887,113.4766758,mono,Cc,0,-20.98971688,-0.297648989,0,TRUE,5.990317227,0.9154,FALSE,250.6334832,,
mp-1179184,TlBrO3,5,Tl1 Br1 O3,3.658288,7.079458695,4.2124749,87.66755087,115.7357258,95.37797282,mono,Cm,5.92E-05,-3.930654824,-0.160194491,0.489371731,FALSE,5.639358263,0.0542,FALSE,97.84323469,,
mp-29798,TlBrO3,5,Tl1 Br1 O3,4.45421976,4.454220478,4.454219804,86.79052411,86.79052889,86.79052197,trig,R3m,0,-4.412738808,-0.642278475,0.007287747,FALSE,6.272203994,3.5098,FALSE,87.97115887,,
mp-28219,TlCdBr3,20,Tl1 Cd1 Br3,4.16632915,9.4840848,15.49769506,90,90,90,ortho,Pnma,0,-2.84212255,-1.193658168,0.002632557,FALSE,6.036192161,2.7489,FALSE,612.3731169,,
mp-28218,TlCdCl3,20,Tl1 Cd1 Cl3,3.97942577,9.0244099,14.90375801,90,90,90,ortho,Pnma,0,-3.209719188,-1.434300731,0,TRUE,5.251360211,3.2976,FALSE,535.2233003,,
mp-1412222,TlCdF3,5,Tl1 Cd1 F3,4.418375516,4.418375516,4.419349275,89.95704768,89.95704768,90.03408074,trig,R3m,0,-18.7536479,-2.222596722,0.009239023,FALSE,7.194373047,4.1944,FALSE,86.27465928,,
mp-998623,TlCdF3,5,Tl1 Cd1 F3,4.418730675,4.419278366,4.430989125,89.95341942,90.11546588,90.09547893,mono,Cm,0,-18.75648426,-2.225433084,0.006402661,FALSE,7.173453034,4.2415,FALSE,86.52626294,,
mp-998759,TlCdF3,40,Tl1 Cd1 F3,6.16844095,8.7315402,12.59989595,90,90,90,ortho,Pbam,0,-18.76288693,-2.231835745,0,TRUE,7.316998483,3.9371,TRUE,678.6302715,,
mp-27252,TlCdI3,20,Tl1 Cd1 I3,4.497421,10.395807,16.637704,90,90,90,ortho,Pnma,0.0002936,-2.407255373,-0.826551342,0.016685706,FALSE,5.955839095,2.1776,FALSE,777.8845488,,
mp-1207995,TlCdN3,5,Tl1 Cd1 N3,4.47241,4.47241,4.47241,90,90,90,cubic,Pm-3m,5.3186794,-18.24220118,1.891907674,1.891907674,FALSE,6.660305218,0,FALSE,89.45916281,,
mp-29738,TlClO3,5,Tl1 Cl1 O3,4.57492833,4.57492765,4.57492833,83.89769319,83.89769346,83.89769319,trig,R3m,0,-4.532848862,-0.720070504,0.061993027,FALSE,5.072115206,4.3481,FALSE,94.23296053,,
mp-2353285,TlCoCl3,10,Tl1 Co1 Cl3,7.049172357,7.049077423,5.914459276,89.87543292,90.1263353,120.1188283,mono,C2/m,6.0000001,-4.130708261,-1.120608498,0.004752211,FALSE,4.829546171,0.1982,FALSE,254.2104702,"{'voigt': 14.782, 'reuss': 19.614, 'vrh': 17.198}","{'voigt': 6.75, 'reuss': 6.625, 'vrh': 6.688}"
mp-567430,TlCoCl3,30,Tl1 Co1 Cl3,11.92393453,11.92393381,5.92586096,90,90,119.9999993,hex_,P6_3cm,17.9869922,-4.009736909,-0.999637145,0.125723563,FALSE,5.047772572,0,FALSE,729.6611636,,
mp-567620,TlCoCl3,40,Tl1 Co1 Cl3,5.936008961,11.95923653,13.78494594,90.02380051,90.00946375,89.9705571,ortho,Pbca,23.9922846,-4.12726998,-1.117170217,0.008190492,FALSE,5.018301814,0,FALSE,978.5949497,,
mp-569753,TlCoCl3,10,Tl1 Co1 Cl3,6.89499275,6.895217012,5.91675637,89.99973582,89.99989278,119.9984791,hex_,P6_3/mmc,5.997407,-4.124859668,-1.114759905,0.010600804,FALSE,5.039611158,0,FALSE,243.6142719,,
mp-998160,TlCoF3,5,Tl1 Co1 F3,4.200322,4.200322,4.200322,90,90,90,cubic,Pm-3m,3.000163,-5.042304014,-1.994438866,0.196479113,FALSE,7.177515698,0,FALSE,74.10504155,,
mp-755788,TlCoO3,10,Tl1 Co1 O3,5.786748714,5.786748714,5.786748025,53.72007515,53.72007515,53.72007657,trig,R-3,1.54E-05,-5.967864613,-1.098110243,0.067084558,FALSE,8.844136974,0.464,FALSE,116.9023534,,
mp-756464,TlCoO3,20,Tl1 Co1 O3,5.394129,5.416439,7.961695,90,90,90,ortho,Pnma,7.999998,-5.944674184,-1.074919813,0.090274987,FALSE,8.88930871,0,FALSE,232.6166094,,
mp-770614,TlCoO3,20,Tl1 Co1 O3,5.327076,5.409948766,7.924760835,89.48993646,89.53109509,89.1355235,tri,P-1,3.999893,-5.933432737,-1.063678367,0.101516434,FALSE,9.055683169,0.143,FALSE,228.3428885,,
mp-1105306,TlCrO3,20,Tl1 Cr1 O3,5.416771,5.521843,7.819103,90,90,90,ortho,Pnma,11.9996878,-7.067328762,-1.693648242,0.039864297,FALSE,8.644508645,0.4346,FALSE,233.8737418,,
mp-1105457,TlCuCl3,20,Tl1 Cu1 Cl3,4.013262398,8.87140164,14.15560284,90,90,96.69851072,mono,P2_1/c,3.9999996,-3.482278346,-1.079020592,0.001393829,FALSE,4.966746229,0.4143,FALSE,500.545279,,
mp-998147,TlCuCl3,5,Tl1 Cu1 Cl3,4.82013622,4.82013622,4.82013726,90,90,90,cubic,Pm-3m,0.5335436,-3.454755579,-1.051497825,0.028916596,FALSE,5.549799837,0,FALSE,111.9896866,"{'voigt': 39.029, 'reuss': 39.029, 'vrh': 39.029}","{'voigt': 17.614, 'reuss': 17.242, 'vrh': 17.428}"
mp-554973,TlCuF3,5,Tl1 Cu1 F3,4.07632852,4.09064598,4.0903874,90,90,90,cubic,Pm-3m,0.9999977,-16.54245651,-1.863043664,0.00384109,FALSE,7.91053861,0,FALSE,68.20646084,"{'voigt': 70.161, 'reuss': 70.161, 'vrh': 70.161}","{'voigt': 26.409, 'reuss': 25.04, 'vrh': 25.725}"
mp-1187483,TlCuO3,5,Tl1 Cu1 O3,3.842897,3.842897,3.842897,90,90,90,cubic,Pm-3m,0.0034613,-4.919566706,-0.656654346,0.319503057,FALSE,9.244007629,0,FALSE,56.75135472,,
mp-504821,TlFeBr3,20,Tl1 Fe1 Br3,3.984787,9.428482,15.382907,90,90,90,ortho,Pnma,15.9996798,-4.071308278,-0.920841691,0.053698422,FALSE,5.745686588,0,FALSE,577.9433921,,
mp-568553,TlFeBr3,30,Tl1 Fe1 Br3,12.70140664,12.70140664,6.035159,90,90,120.0000033,hex_,P6_3cm,23.9902495,-3.998106716,-0.84764013,0.126899984,FALSE,5.907388322,0,FALSE,843.1851984,,
mp-998159,TlFeF3,5,Tl1 Fe1 F3,4.254436,4.254436,4.254436,90,90,90,cubic,Pm-3m,3.999646,-5.38409529,-2.068909244,0.271342498,FALSE,6.840509941,3.4393,FALSE,77.00625173,,