mp_id,composition,a_edge (angstrom),b_edge (angstrom),c_edge (angstrom),alpha_ang (deg),beta_ang (deg),gamma_ang (deg),crystal_system,space_group,formation_energy (eV/atom),energy_above_hull (eV/atom),band_gap (eV),A_site,B_site,X_site
mp-1232153,Ho1 Mg1 S3,6.649669,6.649669007,18.000186,90.0,90.0,120.0000049,trig,R-3,-1.628768066,0.232641046,0.0,Ho,Mg,S
mp-1232140,Ho1 Mg1 Se3,7.340910381,7.340910381,6.888387621,76.39953926,76.39953926,119.0200115,mono,C2/m,-1.384098585,0.328701522,0.0,Ho,Mg,Se
mp-1232172,Ho1 Mg1 Se3,6.890471,6.890470811,19.278401,90.0,90.0,119.9999961,trig,R-3,-1.500064635,0.212735472,0.0,Ho,Mg,Se
mp-1181443,Ho1 Mn1 O3,5.976331,13.074903,3.374556,90.0,90.0,90.0,ortho,Pnma,-2.756588296,0.311694742,1.0638,Ho,Mn,O
mp-1193069,Ho1 Mn1 O3,6.117400843,6.117400843,12.543845,90.0,90.0,125.3910233,ortho,Cmc2_1,-2.7523763,0.315906739,0.4942,Ho,Mn,O
mp-19056,Ho1 Mn1 O3,6.107331392,6.107331675,11.40796997,90.00001482,90.00000886,119.9997037,hex_,P6_3cm,-3.068283038,0.0,0.0,Ho,Mn,O
mp-22081,Ho1 Mn1 O3,5.312082,5.85681,7.477837,90.0,90.0,90.0,ortho,Pnma,-3.03968397,0.028599069,0.4351,Ho,Mn,O
mp-1079921,Ho1 Ni1 Ge3,10.9123359,10.9123359,4.06326307,90.0,90.0,158.6064482,ortho,Cmmm,-0.56144398,0.0,0.0,Ho,Ni,Ge
mp-18974,Ho1 Ni1 O3,5.13100678,5.49720193,7.36043418,90.0,90.0,90.0,ortho,Pnma,-2.507236384,0.0,0.0,Ho,Ni,O
mp-22664,Ho1 Rh3 C1,4.14152903,4.14152903,4.14152903,90.0,90.0,90.0,cubic,Pm-3m,-0.51355468,0.0,0.0,Ho,C,Rh
mp-1184833,Ho1 Rh1 O3,3.937435,3.937435,3.937435,90.0,90.0,90.0,cubic,Pm-3m,-1.986696938,0.600743014,0.0,Ho,Rh,O
mp-1212108,Ho1 Rh1 O3,5.20253763,5.73954677,7.55043384,90.0,90.0,90.0,ortho,Pnma,-2.587439952,0.0,0.9606,Ho,Rh,O
mp-1206820,Ho1 Ru3 C1,4.12808859,4.12808859,4.12808859,90.0,90.0,90.0,cubic,Pm-3m,-0.22734074,0.0,0.0,Ho,C,Ru
mp-1207180,Ho1 Sb1 O3,4.246295,4.246295,4.246295,90.0,90.0,90.0,cubic,Pm-3m,-1.863712314,1.076734553,0.0,Ho,Sb,O
mp-31121,Ho1 Sc1 O3,5.437512,5.733318,7.974802,90.0,90.0,90.0,ortho,Pnma,-3.965070403,0.036679872,4.476,Ho,Sc,O
mp-1189393,Ho1 Sc1 S3,6.369949,6.991898,9.53923,90.0,90.0,90.0,ortho,Pna2_1,-2.260544898,0.01290025,1.7663,Ho,Sc,S
mp-1069461,Ho1 Si3 Ir1,5.704555446,5.704555446,5.704555446,137.2459656,137.2459656,62.05982257,tet,I4mm,-0.770646865,0.0,0.0,Ho,Ir,Si
mp-1184813,Ho1 Si1 O3,3.7096,3.7096,3.7096,90.0,90.0,90.0,cubic,Pm-3m,-2.783655504,0.757057173,0.0,Ho,Si,O
mp-973977,Ho1 Sn1 O3,4.351836,4.351836,4.351836,90.0,90.0,90.0,cubic,Pm-3m,-2.131808973,0.869262274,0.0,Ho,Sn,O
mp-755236,Ho1 Ti1 O3,5.328055,5.692451,7.674495,90.0,90.0,90.0,ortho,Pnma,-3.635615666,0.058383068,0.0,Ho,Ti,O
mp-1178178,Ho1 Tm1 O3,5.606803,5.877711,8.333221,90.0,90.0,90.0,ortho,Pnma,-3.962808583,0.096007591,4.4948,Ho,Tm,O
mp-1224261,Ho1 U1 Te3,4.275994,11.856418,12.06082,90.0,90.0,90.0,ortho,Pnma,-1.244269689,0.170791854,0.0,Ho,U,Te
mp-19024,Ho1 V1 O3,5.23261452,5.65391191,7.52519119,90.0,90.0,90.0,ortho,Pnma,-3.301341118,0.0,0.0,Ho,V,O
mp-1021667,I1 Cl1 O3,4.141923,4.141923,4.141923,90.0,90.0,90.0,cubic,Pm-3m,0.041896598,0.671400418,0.0,I,Cl,O
mp-1181075,I1 N1 O3,6.827385,7.429918,8.003712,90.0,90.0,90.0,ortho,Pna2_1,-0.24329761,0.424371453,0.0,I,N,O
mp-754661,I1 N1 O3,4.342469,7.422848,12.096245,90.0,90.0,90.0,ortho,P2_12_12_1,-0.586730331,0.080938732,1.9762,I,N,O
mp-559377,I1 O1 F3,5.05358546,5.44579822,11.09163673,90.0,90.0,90.0,ortho,P2_12_12_1,-1.648431501,0.0,3.637,I,O,F
mp-1184913,In1 As1 O3,3.933194,3.933194,3.933194,90.0,90.0,90.0,cubic,Pm-3m,-1.194767694,0.615440306,0.0,In,As,O
mp-7027,In1 B1 O3,5.882060384,5.882060643,5.882061289,48.68871997,48.68872112,48.68872217,trig,R-3c,-2.458591821,0.0,2.6556,In,B,O
mp-545379,In1 Bi1 O3,4.172779,4.172779,4.172779,90.0,90.0,90.0,cubic,Pm-3m,-1.321871238,0.496026063,0.0452,In,Bi,O
mp-556892,In1 Bi1 O3,5.710462,6.054819,8.418455,90.0,90.0,90.0,ortho,Pna2_1,-1.788954224,0.028943077,2.7352,In,Bi,O
mp-561102,In1 Bi1 O3,5.678355,6.09561,8.203608,90.0,90.0,90.0,ortho,Pnma,-1.777973833,0.039923469,2.3884,In,Bi,O
mp-1078776,In1 Bi1 S3,3.90412981,6.593652709,9.907466493,88.60311321,90.0,90.0,mono,P2_1/m,-0.563430662,0.015075937,1.38,In,Bi,S
mp-1223842,In1 Bi1 Se3,10.25690755,10.25690755,10.25690705,23.17547089,23.17547089,23.17547222,trig,R3m,-0.535004307,0.025377895,0.8234,In,Bi,Se
mp-1068786,In1 Co3 N1,3.82707053,3.82712609,3.82710757,90.0,90.0,90.0,cubic,Pm-3m,-0.02455489,0.022525377,0.0,In,N,Co
mp-755167,In1 Co1 O3,5.124142,5.313833,7.435169,90.0,90.0,90.0,ortho,Pnma,-1.533098974,0.078910866,0.0,In,Co,O
mp-1224030,In1 Cu1 O3,6.044282655,6.044282655,6.044282368,33.13839757,33.13839757,33.13839528,trig,R3m,-1.371780006,0.051192437,0.0,In,Cu,O
mp-975443,In1 Cu1 O3,3.787341,3.787341,3.787341,90.0,90.0,90.0,cubic,Pm-3m,-0.905988302,0.516984141,0.0,In,Cu,O
mp-617426,In1 Fe1 Br3,3.721589,9.207578,15.284974,90.0,90.0,90.0,ortho,Pnma,-0.727085915,0.264136746,0.0,In,Fe,Br
mp-21094,In1 Fe1 O3,3.397549,3.397548105,12.360357,90.0,90.0,119.999999,hex_,P6_3/mmc,-1.803096002,0.047483368,1.2138,In,Fe,O
mp-8098,In1 Ga1 O3,3.32960934,3.329608836,12.06608203,90.0,90.0,119.9999951,hex_,P6_3/mmc,-2.129527091,0.002004937,1.342,In,Ga,O
mp-1224212,In1 Ga1 S3,6.756379,6.757355807,15.5815936,81.4107076,85.32545575,60.0113165,tri,P1,-0.703550597,0.076010366,0.0452,In,Ga,S
mp-1224507,In1 Ga1 S3,3.935248227,3.935248227,18.888809,90.0,90.0,120.0000038,trig,P3m1,-0.48105503,0.298505932,0.0,In,Ga,S
mp-19885,In1 Ga1 S3,10.08237472,10.08237472,6.233365,90.0,90.0,158.2349664,ortho,Cmc2_1,-0.762382528,0.017178434,1.6761,In,Ga,S
mp-504951,In1 Ga1 S3,6.773408574,6.772367765,18.08691207,89.99981152,90.00044285,119.9871568,hex_,P6_1,-0.779560963,0.0,2.0937,In,Ga,S
mp-504952,In1 Ga1 Se3,7.058579737,7.059472485,18.97877713,90.0002276,89.99945352,119.9291293,hex_,P6_1,-0.705555897,0.0,1.3166,In,Ga,Se
mp-998233,In1 Ge1 Cl3,5.549692736,5.549692736,5.647701176,89.78244714,89.78244714,85.23207619,mono,Cm,-0.907087076,0.029272845,2.2217,In,Ge,Cl
mp-998569,In1 Ge1 Cl3,7.82655071,7.82655071,7.826550691,60.53104588,60.53104588,60.53104374,trig,R3c,-0.917030421,0.0193295,3.2685,In,Ge,Cl
mp-1070713,In1 Ni3 N1,3.83985571,3.83985571,3.83985571,90.0,90.0,90.0,cubic,Pm-3m,-0.142051176,0.0,0.0,In,N,Ni
mp-1223697,In1 Ni3 Sb1,4.181508915,4.181508915,5.225062,90.0,90.0,120.0120071,hex_,P-6m2,-0.124055209,0.062917151,0.0,In,Sb,Ni
mp-1184799,In1 Os1 O3,3.973267,3.973267,3.973267,90.0,90.0,90.0,cubic,Pm-3m,-1.134384352,0.467179733,0.0,In,Os,O
mp-675295,In1 P1 F3,5.179715066,5.179715066,5.179714938,73.0433364,73.0433364,73.04333687,trig,R3,-1.57231024,0.639617179,1.2253,In,P,F
mp-998512,In1 Pb1 Cl3,7.07929679,7.07929679,10.6529262,90.0,90.0,144.7973039,ortho,Cmcm,-1.123254708,0.026258527,2.5322,In,Pb,Cl
mp-998535,In1 Pb1 Cl3,5.759589183,5.759589183,5.757001593,89.83363079,89.83363079,88.85990248,mono,Cm,-1.13137505,0.018138185,2.9011,In,Pb,Cl
mp-20796,In1 Pt3 C1,4.258586,4.258586,4.258586,90.0,90.0,90.0,cubic,Pm-3m,0.257168197,0.539015953,0.0,In,C,Pt
mp-1184773,In1 Pt1 O3,4.029858,4.029858,4.029858,90.0,90.0,90.0,cubic,Pm-3m,-0.73374386,0.768916963,0.0,In,Pt,O
mp-1105819,In1 Rh1 O3,5.340653,5.498795,7.866305,90.0,90.0,90.0,ortho,Pnma,-1.471645817,0.073917505,0.3222,In,Rh,O
mp-1203220,In1 Rh1 O3,7.708572,7.708579,10.79162661,45.77266245,90.0,90.0,mono,P2_1/c,-1.504941201,0.04062212,1.0391,In,Rh,O
mp-1212207,In1 Rh1 O3,5.341129,5.529847,8.244579,90.0,90.0,90.0,ortho,Pnma,-1.211146257,0.334417065,0.0,In,Rh,O
mp-1184765,In1 Sb1 O3,4.106234,4.106234,4.106234,90.0,90.0,90.0,cubic,Pm-3m,-1.414700604,0.458201841,0.0,In,Sb,O
mp-21365,In1 Sb1 S3,3.8395774,9.40747945,13.5820799,90.0,90.0,90.0,ortho,Pnma,-0.521598793,0.0,1.4761,In,Sb,S
mp-1212011,In1 Sb1 Se3,4.08704,9.99368,14.103916,90.0,90.0,90.0,ortho,Pnma,-0.478412326,0.007178702,1.102,In,Sb,Se
mp-1184751,In1 Si1 O3,3.663019,3.663019,3.663019,90.0,90.0,90.0,cubic,Pm-3m,-2.06253356,0.565854375,0.0,In,Si,O
mp-567931,In1 Si1 Te3,7.12039536,7.120395165,7.48873665,90.0,90.0,119.9999922,trig,P-31m,-0.306195786,0.0,0.4816,In,Si,Te
mp-574250,In1 Si1 Te3,7.389027171,7.389027171,5.196314,90.0,90.0,119.9999926,trig,P3,0.042583879,0.348779665,0.0,In,Si,Te
mp-1224379,In1 Sn1 Br3,12.54999285,12.06325353,11.93547416,63.05723904,58.9686343,57.97412667,ortho,Fmm2,-1.01480362,0.063128857,1.5767,In,Sn,Br
mp-685272,In1 Sn1 Br3,12.059662,12.22797743,18.03637887,90.38692803,89.9810797,94.97603382,tri,P1,-1.034246851,0.043685627,2.0441,In,Sn,Br
mp-998398,In1 Sn1 Br3,5.932798,5.959625999,5.985729786,85.0633274,87.21602851,88.38034629,tri,P1,-1.047631763,0.030300714,1.0975,In,Sn,Br
mp-998555,In1 Sn1 Br3,8.259506711,8.259506711,8.259505923,59.35077767,59.35077767,59.35077677,trig,R3c,-1.057904393,0.020028084,1.7551,In,Sn,Br
mp-1224255,In1 Sn1 Cl3,11.97861142,11.57359828,11.43199059,62.75254982,59.20202012,58.04543006,ortho,Fmm2,-1.254953527,0.047382566,1.8708,In,Sn,Cl
mp-998560,In1 Sn1 Cl3,5.669548063,5.669548063,5.776513428,88.63860675,88.63860675,88.79573021,mono,Cm,-1.282238966,0.020097127,2.0788,In,Sn,Cl
mp-998567,In1 Sn1 Cl3,8.133889658,8.133889658,8.133889768,58.70701167,58.70701167,58.70700779,trig,R-3,-1.302336093,0.0,3.0433,In,Sn,Cl
mp-9200,K3 Au1 O1,5.22438571,5.22438571,5.22438571,90.0,90.0,90.0,cubic,Pm-3m,-0.879719693,0.0,0.5612,Au,O,K
mp-28166,K3 Br1 O1,5.19026401,5.19026401,5.19026401,90.0,90.0,90.0,cubic,Pm-3m,-1.564212306,0.0,0.8913,Br,O,K
mp-1070737,K3 C1 O1,5.231062,5.231062,5.231062,90.0,90.0,90.0,cubic,Pm-3m,0.202012067,1.05025853,0.2972,C,O,K
mp-1223812,K3 Cl1 O1,5.13676547,5.146688008,5.143947179,89.54404141,90.0,90.0,mono,Pm,-1.621424995,0.018001368,0.9897,Cl,O,K
mp-572291,K3 Cl1 O1,7.16195439,7.311946965,10.22990925,90.00404383,89.99970258,89.9990891,ortho,Pnma,-1.639031264,0.0003951,1.0785,Cl,O,K
mp-673798,K3 Cl1 O1,5.24302534,10.08188548,7.138101564,45.07325321,90.0,90.0,ortho,Amm2,-1.631949922,0.007476441,1.0264,Cl,O,K
mp-28171,K3 I1 O1,5.29423015,5.29423015,5.29423015,90.0,90.0,90.0,cubic,Pm-3m,-1.4458463,0.0,1.0284,I,O,K
mp-675156,K3 N1 O1,5.218731,5.199099,25.79781071,88.27487677,90.0,90.0,mono,P2,-0.186363353,0.591432868,0.0,N,O,K
mp-1211900,K3 S1 I1,13.99658237,13.99658237,8.213291,90.0,90.0,120.0000017,hex_,P6_3cm,-1.229704849,0.163133435,1.0356,S,I,K
mp-1185008,K1 Ac1 O3,4.65408,4.65408,4.65408,90.0,90.0,90.0,cubic,Pm-3m,-2.212632815,0.207251153,0.0,K,Ac,O
mp-998553,K1 Ag1 Br3,7.427913034,7.427912658,7.42791369,61.64015932,61.64014645,61.64015786,trig,R3c,-1.1788726,0.0,0.0,K,Ag,Br
mp-998568,K1 Ag1 Br3,5.353612944,5.339531111,5.35115276,89.88452946,89.97814515,90.03146015,tet,P4mm,-1.170943684,0.007928916,0.0,K,Ag,Br
mp-2464440,K1 Ag1 Cl3,5.12817365,5.12817365,5.12884144,90.0,90.0,90.0,cubic,Pm-3m,-1.18494259,0.003795701,0.0,K,Ag,Cl
mp-998554,K1 Ag1 Cl3,5.055190599,5.055300118,5.067238667,90.03159851,90.00151249,89.99824553,tet,P4mm,-1.186842439,0.001895852,0.0,K,Ag,Cl
mp-998750,K1 Ag1 Cl3,7.071671229,7.07167202,7.071671844,61.04256827,61.04257136,61.04257547,trig,R3c,-1.188738291,0.0,0.0,K,Ag,Cl
mp-1205357,K1 Ag1 F3,5.99687912,6.18287501,8.5032308,90.0,90.0,90.0,ortho,Pnma,-2.115058583,0.0,0.0,K,Ag,F
mp-13819,K1 Ag1 F3,4.313309,4.313309,4.313309,90.0,90.0,90.0,cubic,Pm-3m,-2.108817263,0.00624132,0.0,K,Ag,F
mp-976229,K1 Ag1 O3,4.192631,4.192631,4.192631,90.0,90.0,90.0,cubic,Pm-3m,-0.490754263,0.326060585,0.0,K,Ag,O
mp-1097006,K1 Al1 H3,3.981683,3.981683,3.981683,90.0,90.0,90.0,cubic,Pm-3m,-0.081973536,0.184462262,0.0,K,Al,H
mp-1184936,K1 Al1 O3,3.867014,3.867014,3.867014,90.0,90.0,90.0,cubic,Pm-3m,-2.056392494,0.271128937,0.0,K,Al,O
mp-1105278,K1 As1 O3,4.591781622,5.913656477,12.93258938,90.01812788,89.99684129,90.00160279,ortho,P2_12_12_1,-1.928226401,0.01070901,3.3848,K,As,O
mp-1184937,K1 As1 O3,3.843473,3.843473,3.843473,90.0,90.0,90.0,cubic,Pm-3m,-1.509571564,0.429363847,0.0,K,As,O
mp-1192552,K1 As1 O3,7.559842347,7.563372239,10.31952457,85.72938349,111.2498839,106.8613524,tri,P-1,-1.933669552,0.005265859,3.1488,K,As,O
mp-1194970,K1 As1 O3,4.90279138,11.38334748,11.51034733,90.0,90.0,90.0,ortho,Pbcn,-1.938935411,0.0,3.0119,K,As,O
mp-1195114,K1 As1 O3,8.940644298,19.12823845,12.23769435,90.0,90.27242595,90.0,mono,P2_1/c,-1.936051058,0.002884353,3.1596,K,As,O
mp-1112174,K1 Au1 Br3,5.413378,5.413378,5.413378,90.0,90.0,90.0,cubic,Pm-3m,-1.103536214,0.046329475,0.0,K,Au,Br
mp-1110854,K1 Au1 Cl3,5.138475,5.138475,5.138475,90.0,90.0,90.0,cubic,Pm-3m,-1.291864017,0.062613485,0.0,K,Au,Cl
mp-1111868,K1 Au1 F3,4.4844,4.4844,4.4844,90.0,90.0,90.0,cubic,Pm-3m,-1.886496883,0.1607116,0.0,K,Au,F
mp-31045,K1 Au1 I3,9.46142359,7.368523763,13.45476131,59.10163995,90.0,90.0,mono,P2_1/c,-0.886814323,0.0,0.6459,K,Au,I
mp-1184942,K1 Au1 O3,4.15778,4.15778,4.15778,90.0,90.0,90.0,cubic,Pm-3m,-0.550954586,0.364279868,0.0,K,Au,O
mp-1223538,K1 Ba1 N3,14.06110916,13.34219538,7.195144682,80.38480049,69.31591885,30.29928066,ortho,F222,1.362704502,1.851196041,0.0,K,Ba,N
mp-973447,K1 Ba1 O3,5.013731,5.013731,5.013731,90.0,90.0,90.0,cubic,Pm-3m,-1.242491632,0.573607507,0.0,K,Ba,O
mp-1211678,K1 Be1 F3,4.45356696,5.41615052,11.98714706,90.0,90.0,90.0,ortho,P2_12_12_1,-3.406749262,0.0,7.0613,K,Be,F
mp-974757,K1 Be1 H3,5.497438,6.861258,9.044220097,74.1085332,90.0,90.0,mono,P2_1/c,-0.197541067,0.007877581,3.0876,K,Be,H
mp-973396,K1 Be1 O3,3.771574,3.771574,3.771574,90.0,90.0,90.0,cubic,Pm-3m,-1.193306335,0.635952091,0.0,K,Be,O
mp-29799,K1 Bi1 O3,10.06653795,10.06653795,10.06653795,90.0,90.0,90.0,cubic,Pn-3,-1.572585076,0.0,0.4914,K,Bi,O
mp-676536,K1 Bi1 O3,8.754482,8.990079569,22.17956562,97.23607675,96.20583412,109.9529972,tri,P1,-1.541713024,0.030872052,0.1862,K,Bi,O
mp-863367,K1 Bi1 O3,8.640119551,8.640119551,10.03376254,55.82079292,55.82079292,71.9043772,mono,C2/m,-1.563133505,0.009451571,0.4906,K,Bi,O
mp-982040,K1 Bi1 O3,4.284204,4.284204,4.284204,90.0,90.0,90.0,cubic,Pm-3m,-1.479716392,0.092868684,0.0,K,Bi,O
mp-22958,K1 Br1 O3,4.394010315,4.394010476,4.394009926,85.10928319,85.1092845,85.109288,trig,R3m,-1.044634649,0.0,3.8569,K,Br,O
mp-1105868,K1 C1 O3,10.319265,4.493736,7.776970041,63.69828552,90.0,90.0,mono,P2_1/c,-1.799117634,0.011834445,0.0964,K,C,O
mp-1106094,K1 C1 O3,5.786966,4.005711,15.32873122,80.49497619,90.0,90.0,mono,P2_1/c,-1.810952079,0.0,0.8756,K,C,O
mp-31302,K1 C1 O3,11.095666,7.305058,8.541060884,68.65409126,90.0,90.0,mono,P2_1/c,-1.736230414,0.074721665,4.1733,K,C,O
mp-1211648,K1 Ca1 Br3,7.58990711,8.05949747,10.97533155,90.0,90.0,90.0,ortho,Pnma,-2.263987169,0.0054324,4.5753,K,Ca,Br
mp-998599,K1 Ca1 Br3,4.267215332,7.380736496,10.75417137,90.00076391,90.00054285,106.7969679,ortho,Cmcm,-2.269419568,0.0,4.4047,K,Ca,Br
mp-998749,K1 Ca1 Br3,5.721591971,5.721591971,5.716306997,89.8982365,89.8982365,89.88657753,mono,Cm,-2.214869202,0.054550366,3.8983,K,Ca,Br
mp-1211589,K1 Ca1 Cl3,5.393523,5.393523,5.393523,90.0,90.0,90.0,cubic,Pm-3m,-2.441813669,0.045733154,4.7635,K,Ca,Cl
mp-1211643,K1 Ca1 Cl3,7.20898851,7.59169634,10.45793088,90.0,90.0,90.0,ortho,Pnma,-2.487546824,0.0,5.5615,K,Ca,Cl
mp-998421,K1 Ca1 Cl3,7.234241455,7.234241885,8.027073376,63.21683877,63.21683933,60.00000336,trig,R-3,-2.469390557,0.018156267,5.616,K,Ca,Cl
mp-998601,K1 Ca1 Cl3,5.407372225,5.407372225,5.406517026,89.99604413,89.99604413,90.021713,mono,Cm,-2.441880645,0.045666178,4.7457,K,Ca,Cl
mp-4950,K1 Ca1 F3,4.481726,4.481726,4.481726,90.0,90.0,90.0,cubic,Pm-3m,-3.696861995,0.023864284,6.1392,K,Ca,F
mp-5926,K1 Ca1 F3,6.12777352,6.22062595,8.71579992,90.0,90.0,90.0,ortho,Pnma,-3.720726279,0.0,6.6502,K,Ca,F
mp-643749,K1 Ca1 F3,8.874099,6.224743,6.272645949,89.60780972,90.0,90.0,mono,P2_1/m,-3.718699542,0.002026737,6.5991,K,Ca,F
mp-1105914,K1 Ca1 H3,6.311777,6.322585,8.933021,90.0,90.0,90.0,ortho,Pnma,-0.479209978,0.036747629,3.3257,K,Ca,H
mp-1205722,K1 Ca1 I3,7.936552371,7.936552371,11.6910337,90.0,90.0,146.3266831,ortho,Cmcm,-1.793116879,0.011525593,3.6024,K,Ca,I
mp-982885,K1 Ca1 O3,4.568674,4.568674,4.568674,90.0,90.0,90.0,cubic,Pm-3m,-1.470941566,0.439582296,0.0,K,Ca,O
mp-23442,K1 Cd1 Cl3,4.01365267,8.85064146,14.6107019,90.0,90.0,90.0,ortho,Pnma,-1.669085436,0.0,3.5095,K,Cd,Cl
mp-10175,K1 Cd1 F3,4.38208902,4.38208902,4.38208902,90.0,90.0,90.0,cubic,Pm-3m,-2.676842727,0.025577015,3.1006,K,Cd,F
mp-9628,K1 Cd1 F3,6.18108562,6.08209058,8.64136873,90.00001605,90.0,90.0,ortho,Pnma,-2.702419742,0.0,3.3539,K,Cd,F
mp-1211584,K1 Cd1 N3,4.567068,4.567068,4.567068,90.0,90.0,90.0,cubic,Pm-3m,1.597863704,1.778230008,0.0,K,Cd,N
mp-1184992,K1 Cd1 O3,4.339857,4.339857,4.339857,90.0,90.0,90.0,cubic,Pm-3m,-0.72398521,0.402591434,0.0,K,Cd,O
mp-23022,K1 Cl1 O3,5.701289,4.751184,7.236104033,70.72898769,90.0,90.0,mono,P2_1/m,-1.148730937,0.050930347,5.4717,K,Cl,O
mp-550506,K1 Cl1 O3,4.529572447,4.529572447,4.529572644,80.01503014,80.01503014,80.01502564,trig,R3m,-1.137667926,0.061993358,5.0728,K,Cl,O
mp-556084,K1 Cl1 O3,4.736659,5.719557,13.665051,90.0,90.0,90.0,ortho,Pnma,-1.148754435,0.050906849,5.5725,K,Cl,O
mp-1001793,K1 Co1 Cl3,6.887999122,6.887999122,6.887999485,60.59571006,60.59571006,60.59570643,trig,R3c,-1.427102693,0.087747533,0.0,K,Co,Cl
mp-559946,K1 Co1 F3,4.105255,4.105255,4.105255,90.0,90.0,90.0,cubic,Pm-3m,-2.443718599,0.159078602,0.0,K,Co,F
mp-1184947,K1 Co1 O3,3.87397,3.87397,3.87397,90.0,90.0,90.0,cubic,Pm-3m,-1.021574084,0.289261468,0.0,K,Co,O
mp-998397,K1 Cr1 Cl3,7.001840011,7.001840011,7.001839672,60.36852347,60.36852347,60.36852729,trig,R3c,-1.610524002,0.0198711,0.0,K,Cr,Cl
mp-998420,K1 Cr1 Cl3,4.97792,4.97792,4.970616,90.0,90.0,90.0,tet,P4mm,-1.60770294,0.022692162,0.0,K,Cr,Cl
mp-1180767,K1 Cr1 F3,5.84693191,5.84693191,5.84693191,118.271375,118.271375,93.02108626,tet,I4/mcm,-2.927415878,0.002180737,1.572,K,Cr,F
mp-1180782,K1 Cr1 F3,5.847078734,5.847078734,5.847078734,118.3605277,118.6222171,92.63364787,ortho,Ibam,-2.927570376,0.002026239,0.1574,K,Cr,F
mp-555036,K1 Cr1 F3,4.219636,4.219636,4.219636,90.0,90.0,90.0,cubic,Pm-3m,-2.843078847,0.086517768,0.0,K,Cr,F
mp-556365,K1 Cr1 F3,6.021007494,6.021007494,5.796128692,59.26580277,59.26580277,90.95246281,mono,C2/m,-2.929596615,0.0,1.4898,K,Cr,F
mp-560547,K1 Cr1 F3,5.914091052,5.914091052,5.914091052,121.0208247,121.0208247,88.24079061,tet,I4/m,-2.925991751,0.003604864,1.968,K,Cr,F
mp-566131,K1 Cr1 F3,4.09361,4.09361,4.600637,90.0,90.0,90.0,tet,P4/mmm,-2.902783367,0.026813248,0.7059,K,Cr,F
mp-1076732,K1 Cr1 O3,3.864733,3.864733,3.864733,90.0,90.0,90.0,cubic,Pm-3m,-1.671608068,0.390394812,0.0,K,Cr,O
mp-1023129,K1 Cu1 Cl3,4.79805545,4.79804927,4.79805133,90.0,90.0,90.0,cubic,Pm-3m,-1.26036129,0.030757297,0.0,K,Cu,Cl
mp-27450,K1 Cu1 Cl3,4.059829343,8.716180511,13.76344897,90.0,90.0,97.11185592,mono,P2_1/c,-1.291118587,0.0,0.2682,K,Cu,Cl
mp-636978,K1 Cu1 Cl3,14.372141,4.757822,9.830983692,89.24271194,90.0,90.0,mono,P2_1/c,-1.269174218,0.021944369,0.0684,K,Cu,Cl
mp-1080828,K1 Cu1 F3,3.95252198,5.773328732,5.773328732,90.03031512,90.0,90.0,tet,P4/mbm,-2.352463068,0.005410073,0.0,K,Cu,F
mp-3682,K1 Cu1 F3,5.754957273,5.754957273,5.754957273,119.8381527,119.8381527,90.28055705,tet,I4/mcm,-2.355485501,0.00238764,0.0,K,Cu,F
mp-556045,K1 Cu1 F3,6.329695506,6.329695506,6.329695506,111.6967346,111.6967346,105.1064025,tet,I4/mcm,-2.224158288,0.133714853,0.0,K,Cu,F
mp-5566,K1 Cu1 F3,5.650595204,5.647021428,5.647021828,90.13977443,119.8984754,119.8984763,cubic,Pm-3m,-2.355674593,0.002198548,0.0,K,Cu,F
mp-669347,K1 Cu1 F3,5.680055154,5.680679711,5.68068068,92.48404255,118.5797755,118.5797774,tet,I4/mcm,-2.357873141,0.0,0.0,K,Cu,F
mp-1147650,K1 Cu1 H3,5.371480941,5.371480941,5.371480941,114.4223778,114.4223778,99.96693585,tet,I4/mcm,-0.069324285,0.046504395,0.0,K,Cu,H
mp-1223513,K1 Cu1 S3,4.1767,3.438944,7.610688,90.0,90.0,90.0,ortho,Pmm2,-0.442745193,0.343337803,0.0,K,Cu,S
mp-1211599,K1 Dy1 Br3,7.64367,8.072648,11.057192,90.0,90.0,90.0,ortho,Pnma,-1.862130698,0.145281407,0.0,K,Dy,Br
mp-1206220,K1 Dy1 I3,8.236174972,8.236174972,11.668159,90.0,90.0,149.7190573,ortho,Cmcm,-1.449537318,0.099411348,0.0,K,Dy,I
mp-1184954,K1 Dy1 O3,4.46864,4.46864,4.46864,90.0,90.0,90.0,cubic,Pm-3m,-2.289703655,0.264965223,0.0,K,Dy,O
mp-973830,K1 Er1 O3,4.426509,4.426509,4.426509,90.0,90.0,90.0,cubic,Pm-3m,-2.325421858,0.255832053,0.0,K,Er,O