mp_id,formula,sites,composition,a_edge (angstrom),b_edge (angstrom),c_edge (angstrom),alpha_ang (deg),beta_ang (deg),gamma_ang (deg),crystal_system,space_group,total_magnetisation (bohr),energy_per_atom (eV/atom),formation_energy (eV/atom),energy_above_hull (eV/atom),stable,density (g/cc),band_gap (eV),direct_bandgap,volume (cubic-angstrom),bulk_modulus (GPa),shear_modulus (GPa)
mp-1210618,Mn3SiNi,20,Mn3 Si1 Ni1,6.053513,6.053513,6.053513,90,90,90,cubic,P2_13,14.3943806,-13.2683965,-0.307299339,0.084226907,FALSE,7.533300033,0,FALSE,221.8311028,,
mp-20860,Mn3SnC,5,Mn3 Sn1 C1,3.893463,3.893463,3.893463,90,90,90,cubic,Pm-3m,3.0241172,-8.161097688,-0.016241043,0.054929461,FALSE,8.314758136,0,FALSE,59.02121638,,
mp-1210555,Mn3SnH,5,Mn3 Sn1 H1,4.0039167,4.00388188,4.00389929,90,90,90,cubic,Pm-3m,10.1514732,-7.021802046,-0.043645212,0,TRUE,7.360899582,0,FALSE,64.18734843,,
mp-505571,Mn3SnN,5,Mn3 Sn1 N1,3.878941,3.878941,3.878941,90,90,90,cubic,Pm-3m,2.9498439,-15.82771995,-0.242732257,0.035761241,FALSE,8.465284471,0,FALSE,58.36325722,,
mp-2930,Mn3ZnC,5,Mn3 Zn1 C1,3.875537,3.875537,3.875537,90,90,90,cubic,Pm-3m,6.9852646,-7.62638847,-0.031497474,0.04248646,FALSE,6.910162174,0,FALSE,58.2097404,"{'voigt': 192.524, 'reuss': 192.524, 'vrh': 192.524}","{'voigt': 66.673, 'reuss': 63.824, 'vrh': 65.249}"
mp-672229,Mn3ZnC,5,Mn3 Zn1 C1,4.592715,4.592715,4.592715,90,90,90,cubic,Pm-3m,11.1781433,-5.596448316,1.99844268,2.072426614,FALSE,4.152172749,0,FALSE,96.8742802,,
mp-15805,Mn3ZnN,5,Mn3 Zn1 N1,3.96245195,3.96249865,3.96233593,90,90,90,cubic,Pm-3m,10.29419,-12.86844658,-0.450575119,0,TRUE,6.518735876,0,FALSE,62.21347052,,
mp-1206344,MnAgF3,5,Mn1 Ag1 F3,4.40991,4.40991,4.40991,90,90,90,cubic,Pm-3m,5.5545045,-4.889051758,-1.341173783,0.931496059,FALSE,4.255890848,0,FALSE,85.76087012,,
mp-754229,MnAgO3,10,Mn1 Ag1 O3,5.147896109,5.925007904,5.147656159,115.747344,59.99273269,115.7280241,trig,R-3,4.0013101,-6.55820158,-1.188434383,0.082111078,FALSE,5.951288981,0,FALSE,117.6380503,,
mp-1258775,MnAlO3,30,Mn1 Al1 O3,6.025762934,6.008548683,10.61448202,89.99296131,90.00154707,127.3606408,ortho,Cmc2_1,23.9984676,-8.093744239,-2.543449412,0.176786014,FALSE,4.23753561,0.9551,TRUE,305.4608739,,
mp-1260288,MnAlO3,30,Mn1 Al1 O3,5.604452168,5.604452168,11.394884,90,90,120.000002,hex_,P6_3cm,24.0000002,-8.00080468,-2.450509853,0.269725573,FALSE,4.176015341,0,FALSE,309.9608658,,
mp-1368992,MnAlO3,20,Mn1 Al1 O3,4.874014,4.959942,8.303278,90,90,90,ortho,Pnma,16.0000772,-8.122675318,-2.572380491,0.147854935,FALSE,4.298973249,0.5506,FALSE,200.7303071,,
mp-1399724,MnAlO3,5,Mn1 Al1 O3,3.7592,3.7592,3.7592,90,90,90,cubic,Pm-3m,3.4080579,-6.980929322,-1.430634495,1.289600931,FALSE,4.060985177,0,FALSE,53.12345298,,
mp-1405591,MnAlO3,10,Mn1 Al1 O3,4.862618,4.989619469,5.238190454,116.5449035,89.17355517,117.5952069,tri,P-1,8,-3.318865026,2.231429801,4.951665227,FALSE,4.414304638,0,FALSE,97.74293929,,
mp-1444809,MnAlO3,10,Mn1 Al1 O3,3.230730647,3.230730647,11.463825,90,90,120.0000133,hex_,P6_3/mmc,8.0042043,-7.999472666,-2.449177839,0.271057587,FALSE,4.163763671,0,FALSE,103.6243035,,
mp-774250,MnAlO3,10,Mn1 Al1 O3,4.856435825,5.24445539,4.972024429,63.53980408,117.7024026,91.0721288,tri,P-1,0,-8.224187442,-2.673892615,0.046342811,FALSE,4.425479034,1.2511,FALSE,97.496137,,
mp-1185996,MnBO3,5,Mn1 B1 O3,3.397224,3.397224,3.397224,90,90,90,cubic,Pm-3m,3.9991329,-7.485155182,-1.348097166,1.080994322,FALSE,4.817452415,0,FALSE,39.2078069,,
mp-1278986,MnBO3,20,Mn1 B1 O3,4.715451545,5.603886316,7.472260021,74.88653718,87.6674191,88.36872732,tri,P-1,15.9999413,-8.53381204,-2.396754024,0.032337465,FALSE,3.967412823,0.5986,FALSE,190.4331639,,
mp-1289597,MnBO3,20,Mn1 B1 O3,4.684094857,5.457496313,7.343171333,75.2461238,86.0185133,87.58288049,mono,C2/c,16.0000016,-8.545781794,-2.408723778,0.020367711,FALSE,4.173469455,1.3314,FALSE,181.0309107,,
mp-25296,MnBO3,15,Mn1 B1 O3,8.402535452,8.402535452,3.073034,90,90,119.9999957,hex_,P-6,12.0005701,-8.340365041,-2.203307026,0.225784463,FALSE,3.015730414,0.5716,FALSE,187.8965141,,
mp-761288,MnBO3,10,Mn1 B1 O3,5.665336873,5.665341834,5.665336962,48.97987158,48.97983222,48.97986325,trig,R-3c,8.0000055,-8.521729229,-2.384671213,0.044420275,FALSE,3.975014899,0,FALSE,95.03448356,,
mp-1105271,MnBiO3,20,Mn1 Bi1 O3,5.737314,5.602912,7.75656,90,90,89.99995957,ortho,Pnma,15.9999979,-7.387640106,-1.808453582,0.025675422,FALSE,8.309139738,0,FALSE,249.3397829,,
mp-1106239,MnBiO3,20,Mn1 Bi1 O3,5.614531589,5.614531589,9.984488107,72.43527194,72.43527194,60.80682567,mono,Cc,16.0045845,-7.383415411,-1.804228888,0.029900116,FALSE,8.049140656,0.0958,FALSE,257.3938246,,
mp-1194603,MnBiO3,40,Mn1 Bi1 O3,5.578177,9.816608,10.02221537,68.60764875,90,90,mono,P2_1/c,32.0037009,-7.387102695,-1.807916172,0.026212832,FALSE,8.108896013,1.9011,TRUE,510.9941218,,
mp-1202955,MnBiO3,80,Mn1 Bi1 O3,5.670855,11.404948,15.845744,90,90,90,ortho,Pmn2_1,64.0001282,-7.378506857,-1.799320334,0.03480867,FALSE,8.086361331,0,FALSE,1024.836271,,
mp-23477,MnBiO3,20,Mn1 Bi1 O3,5.629016166,5.629451589,9.855650117,91.89493016,105.0568577,119.1639671,mono,C2/c,16.001728,-7.385154106,-1.805967583,0.028161421,FALSE,8.011892828,1.4751,FALSE,258.5904658,,
mp-556711,MnBiO3,40,Mn1 Bi1 O3,5.486923,10.5001,11.04739496,60.65049686,90,90,mono,P2_1/c,32.0013982,-7.315448256,-1.736261732,0.097867272,FALSE,7.468876016,0.7775,FALSE,554.7820298,,
mp-1078473,MnCO3,20,Mn1 C1 O3,4.867295906,6.199983994,7.702772452,73.78829314,89.88513274,89.53859001,tri,P-1,0,-8.63006146,-1.9831487,0.030299367,FALSE,3.420715449,3.0809,FALSE,223.197627,,
mp-1180142,MnCO3,10,Mn1 C1 O3,5.761126641,5.761126641,5.749886632,83.35397958,83.35397958,85.83176907,mono,C2/c,5.9994913,-7.615902367,-0.968989607,1.04445846,FALSE,2.031161938,0.3706,FALSE,187.9455195,,
mp-1180143,MnCO3,20,Mn1 C1 O3,5.335177,5.970782,6.939448473,85.09257776,90,90,mono,P2_1/c,16.0000001,-8.387858733,-1.740945973,0.272502095,FALSE,3.466542042,0.1568,TRUE,220.2470248,,
mp-1271783,MnCO3,20,Mn1 C1 O3,4.863172066,6.197282647,7.706737882,73.72312781,89.75279227,89.68064922,mono,P2/c,1.00E-07,-8.630454267,-1.983541507,0.029906561,FALSE,3.424436842,3.7996,FALSE,222.9550745,,
mp-18814,MnCO3,10,Mn1 C1 O3,5.858717084,4.777773563,4.777817668,59.98365385,65.94219262,65.94294854,trig,R-3c,10,-8.660360827,-2.013448067,0,TRUE,3.736292364,3.2291,TRUE,102.1728892,,
mp-690525,MnCO3,10,Mn1 C1 O3,4.94286777,4.94286777,5.621692041,72.80355151,72.80355151,60.26117942,mono,Cc,10,-8.578940629,-1.932027869,0.081420198,FALSE,3.406176884,3.449,FALSE,112.0751501,,
mp-695863,MnCO3,10,Mn1 C1 O3,11.27888128,4.632202553,6.49665639,128.9091062,150.2331535,43.65097718,mono,C2/c,5.4774737,-7.321263836,-0.674351076,1.339096991,FALSE,3.281886485,0,FALSE,116.319619,,
mp-1016854,MnCdO3,5,Mn1 Cd1 O3,3.812762,3.812762,3.812762,90,90,90,cubic,Pm-3m,3.2427241,-6.404873012,-1.411691313,0.279906975,FALSE,6.451628143,0,FALSE,55.42670862,,
mp-546798,MnClO3,10,Mn1 Cl1 O3,6.432041099,6.432041099,5.244794,90,90,109.3891939,ortho,Cmc2_1,0,-6.011179252,-0.840292259,0.361621989,FALSE,2.245496155,2.0431,FALSE,204.6770352,,
mp-1210746,MnCo3C,5,Mn1 Co3 C1,3.754344,3.754344,3.754344,90,90,90,cubic,Pm-3m,6.1886522,-7.88744654,0.070739649,0.09446315,FALSE,7.648716366,0,FALSE,52.91784987,,
mp-1181286,MnCoO3,10,Mn1 Co1 O3,14.75635252,7.276308668,7.39650316,134.735778,152.5663213,22.51037197,mono,C2/m,11.999922,-7.787840512,-1.559977507,0.089941379,FALSE,5.09700976,0,FALSE,105.4698898,,
mp-20641,MnCoO3,10,Mn1 Co1 O3,5.389500902,5.389091229,5.389664773,54.3918906,54.38499087,54.38456968,trig,R-3,11.9987934,-7.877781891,-1.649918886,0,TRUE,5.588165711,0,FALSE,96.19991342,,
mp-1176440,MnCuO3,10,Mn1 Cu1 O3,5.032592,5.032579864,5.424734394,117.6365668,62.36308346,120.0004214,trig,R-3,3.9958545,-7.047822522,-1.426801527,0.04390752,FALSE,5.502749489,0,FALSE,100.4771423,,
mp-674482,MnFeO3,40,Mn1 Fe1 O3,8.270182213,8.270182488,8.270182691,109.7098364,109.2708599,109.4332691,ortho,Ibca,72.0010748,-8.319443517,-1.824259614,0.036245984,FALSE,4.844192804,0.8193,TRUE,435.4285158,,
mp-759744,MnFeO3,40,Mn1 Fe1 O3,8.243295,8.261588644,8.266957752,109.3492699,108.5834952,109.5241117,tri,P1,71.9990165,-8.289106903,-1.793923,0.066582598,FALSE,4.811170907,0.0017,FALSE,438.417118,,
mp-1176435,MnGaO3,10,Mn1 Ga1 O3,3.271002149,3.271002149,11.837017,90,90,120.000003,hex_,P6_3/mmc,8.0000071,-7.467511213,-2.060712347,0.080745909,FALSE,5.22798559,1.2823,FALSE,109.6817949,,
mp-1106201,MnGeO3,20,Mn1 Ge1 O3,5.258931025,6.778701717,6.778701729,85.86152995,81.69676187,81.69680816,mono,C2/c,0,-7.849491123,-2.123705891,0.012176888,FALSE,4.935536565,1.1435,FALSE,236.28735,,
mp-20798,MnGeO3,10,Mn1 Ge1 O3,5.01850004,5.589420758,5.018469724,116.6755362,120.0000915,90.00123101,trig,R-3,0,-7.861668011,-2.135882779,0,TRUE,5.593280876,1.6732,FALSE,104.2505179,,
mp-643577,MnGeO3,80,Mn1 Ge1 O3,5.47413077,9.21015288,19.25117844,90,90,90,ortho,Pbca,80.000583,-7.846756369,-2.120971136,0.014911642,FALSE,4.80612996,1.3076,TRUE,970.5978537,,
mp-1080187,MnHgO3,5,Mn1 Hg1 O3,3.886539,3.886539,3.886539,90,90,90,cubic,Pm-3m,3.4296805,-5.907926472,-1.044812403,0.302727344,FALSE,8.585315439,0,FALSE,58.70689215,,
mp-28912,MnInBr3,20,Mn1 In1 Br3,3.97685468,9.54234417,15.36261815,90,90,90,ortho,Pnma,20.0000003,-4.437653639,-1.071247911,0.004096451,FALSE,4.66518714,1.6242,FALSE,582.9885618,,
mp-1099572,MnInF3,5,Mn1 In1 F3,4.30803372,4.30892651,4.309700028,89.8985325,89.72196543,89.9582066,trig,R3m,5.0000452,-6.035342326,-2.504217138,0.03230832,FALSE,4.706623725,0.001,FALSE,79.99987649,,
mp-1422819,MnInF3,5,Mn1 In1 F3,4.306319434,4.306319434,4.306319965,90.0386918,90.0386918,90.03870488,cubic,Pm-3m,5.0002367,-6.035298128,-2.50417294,0.032352518,FALSE,4.714984991,2.9035,FALSE,79.85800961,,
mp-998241,MnInF3,5,Mn1 In1 F3,4.309147,4.311111222,4.313221071,89.799871,89.52549878,89.92994703,tri,P1,4.9999838,-6.035291062,-2.504165874,0.032359584,FALSE,4.699313223,2.4765,FALSE,80.12432855,,
mp-1193780,MnInO3,30,Mn1 In1 O3,6.007907134,6.007761315,11.65488637,90.02436228,90.02414846,60.0294882,trig,P-3c1,2.21E-05,-7.340368718,-1.987354308,0.016639308,FALSE,5.953378607,0.803,FALSE,364.4210671,,
mp-550807,MnInO3,10,Mn1 In1 O3,3.461332,3.462840177,11.825444,90.00009385,89.99969598,60.01376697,hex_,P6_3/mmc,7.9999715,-7.334922193,-1.981907783,0.022085833,FALSE,5.890629388,0,FALSE,122.7676728,,
mp-882825,MnInO3,30,Mn1 In1 O3,5.909193134,11.53908783,5.909202711,90.00024679,60.17520066,89.99977843,hex_,P6_3cm,24.0000006,-7.34245135,-1.98943694,0.014556675,FALSE,6.206457394,0.9207,FALSE,349.5611823,,
mp-1069129,MnNCl3,5,Mn1 N1 Cl3,4.504298,4.504298,4.504298,90,90,90,cubic,Pm-3m,0.9999997,-8.446134759,0.007745649,0.957628997,FALSE,3.185363106,0,FALSE,91.38635296,,
mp-1180177,MnNCl3,20,Mn1 N1 Cl3,6.643194725,6.643194725,9.495138,90,90,90.34296178,ortho,Cmcm,28.0000023,-8.467944146,-0.014063738,0.935819609,FALSE,2.778771378,0,FALSE,419.0322664,,
mp-1190482,MnNCl3,20,Mn1 N1 Cl3,6.947821,7.300399,8.620924,90,90,90,ortho,Pnma,0,-8.702454832,-0.248574424,0.701308923,FALSE,2.66287787,0,FALSE,437.2693474,,
mp-1069166,MnNF3,5,Mn1 N1 F3,3.98307,3.98307,3.98307,90,90,90,cubic,Pm-3m,0.9984161,-5.361810624,-0.714864636,1.498424255,FALSE,3.309472777,0,FALSE,63.19079465,,
mp-1078939,MnNF3,10,Mn1 N1 F3,3.93874,5.671741,5.717897,90,90,90,ortho,Pbam,14.0000005,-5.740768627,-1.093822639,1.119466252,FALSE,3.274406498,0,FALSE,127.7350352,,
mp-1180159,MnNF3,10,Mn1 N1 F3,5.69489,5.69489,3.957069,90,90,90,tet,P4/mbm,14.0000001,-5.741886318,-1.09494033,1.118348561,FALSE,3.259104776,0,FALSE,128.33476,,
mp-1180181,MnNF3,20,Mn1 N1 F3,5.704336,5.713075,7.904008,90,90,90,ortho,Pnma,28.0000026,-5.741047928,-1.09410194,1.119186951,FALSE,3.247507973,0,FALSE,257.5860831,,
mp-1180187,MnNF3,20,Mn1 N1 F3,5.603628,5.658279,8.054709,90,90,90,ortho,Pnma,28.000005,-5.733183362,-1.086237374,1.127051517,FALSE,3.275435952,0,FALSE,255.3897774,,
mp-1180705,MnNiO3,10,Mn1 Ni1 O3,12.17356188,5.72228014,6.11209817,117.177366,144.6158594,35.54709974,mono,C2/m,9.9985373,-7.32301664,-1.365809643,0.253462698,FALSE,4.743275492,0,FALSE,113.1675106,,
mp-19331,MnNiO3,10,Mn1 Ni1 O3,5.341308382,5.341300442,5.34134469,54.7251048,54.72511675,54.7256067,trig,R-3,10.004428,-7.576479338,-1.619272341,0,TRUE,5.679399962,0,FALSE,94.51432956,,
mp-1210723,MnPO3,40,Mn1 P1 O3,8.309729,8.185271,10.52884739,55.12171106,90,90,mono,P2_1/c,0,-8.046432321,-2.162157954,0.307573655,FALSE,3.027905546,0,FALSE,587.5026012,,
mp-1232516,MnPS3,20,Mn1 P1 S3,6.08366836,8.07864731,10.05708059,69.59153544,78.43518469,75.56881484,tri,P-1,1.00E-07,-6.098327931,-0.699814427,0.006663317,FALSE,2.717460661,1.0298,FALSE,445.1147671,,
mp-8613,MnPS3,10,Mn1 P1 S3,6.072013683,6.072013677,7.052871457,98.15974554,98.15974011,119.954182,mono,C2/m,10.0000003,-6.104991248,-0.706477744,0,TRUE,2.799365878,0.1562,FALSE,216.0456907,,
mp-8695,MnPSe3,10,Mn1 P1 Se3,7.831817512,7.831815774,7.831817417,48.22903535,48.22902317,48.22902874,trig,R-3,9.9999999,-5.553324787,-0.540280137,0,TRUE,4.376991035,0,FALSE,244.9209521,,
mp-1106337,MnPbO3,20,Mn1 Pb1 O3,5.897647,5.066583,10.36071662,85.44347438,90,90,mono,P2/c,12.0013049,-7.1819377,-1.638228625,0.076999948,FALSE,6.675021473,0,FALSE,308.6092549,,
mp-1188613,MnPbO3,20,Mn1 Pb1 O3,10.046976,5.846058,5.405084781,90,91.9022851,90,mono,P2/c,11.9701094,-7.19879951,-1.655090435,0.060138138,FALSE,6.492321633,0,FALSE,317.2938002,,
mp-37214,MnPbO3,5,Mn1 Pb1 O3,3.914633,3.914633,3.914633,90,90,90,cubic,Pm-3m,3.0018107,-7.145062928,-1.601353853,0.11387472,FALSE,8.584766028,0,FALSE,59.98921218,,
mp-510672,MnPbO3,30,Mn1 Pb1 O3,5.607754087,5.594103473,13.85591761,88.94657284,87.89792105,59.91925256,mono,C2/c,17.9997506,-7.187031201,-1.643322126,0.071906447,FALSE,8.220794442,0.5499,FALSE,375.8712283,,
mp-27818,MnSO3,40,Mn1 S1 O3,12.441068,5.496306,8.426418844,79.68425209,90,90,mono,P2_1/c,40.0028064,-7.500876749,-1.872025174,0.072435846,FALSE,3.163607538,4.1546,FALSE,566.8840743,,
mp-560522,MnSO3,30,Mn1 S1 O3,8.043486867,8.04342912,8.042980806,109.2544024,109.2619731,109.2637162,trig,R-3,2.70E-06,-7.500705719,-1.871854144,0.072606875,FALSE,3.332019112,3.339,FALSE,403.6738695,,
mp-1199914,MnSeO3,40,Mn1 Se1 O3,8.27751532,5.247181075,13.76165274,81.27241742,90,90,mono,P2_1/c,39.9999998,-7.143320381,-1.642958424,0.00792151,FALSE,4.090008731,3.3754,FALSE,590.7974105,,
mp-1202364,MnSeO3,40,Mn1 Se1 O3,8.30745548,8.022583545,10.49618852,54.80173752,90,90,mono,P2_1/c,39.9999997,-7.151241891,-1.650879935,0,TRUE,4.227080913,3.0996,FALSE,571.6395349,,
mp-22224,MnSeO3,20,Mn1 Se1 O3,5.208064,6.187389,8.016771,90,89.99993841,90,ortho,Pnma,0,-7.130987467,-1.63062551,0.020254424,FALSE,4.676808755,2.8433,FALSE,258.3349773,,
mp-1172857,MnSiO3,40,Mn1 Si1 O3,9.18448892,5.320586065,9.592426475,77.01389573,90,90,mono,P2_1/c,39.9999998,-8.666176844,-2.779933577,0.017926197,FALSE,3.810581733,0,TRUE,456.7632795,,
mp-1180172,MnSiO3,50,Mn1 Si1 O3,6.189765,9.093938388,11.60193766,69.90164721,86.38180366,84.18780114,tri,P-1,45.9964269,-8.388598921,-2.502355654,0.29550412,FALSE,3.567466243,1.1731,FALSE,609.8634475,,
mp-1180212,MnSiO3,50,Mn1 Si1 O3,6.563765266,8.638238492,13.38316868,107.5687395,103.5290639,99.01218768,tri,P-1,46.0022618,-8.312526819,-2.426283552,0.371576222,FALSE,3.190687225,0.3329,FALSE,681.8804566,,
mp-1181218,MnSiO3,50,Mn1 Si1 O3,5.97153001,8.86198514,13.08767707,112.8146796,90.94879758,90.32204255,tri,P-1,49.9985667,-8.567243818,-2.681000551,0.116859223,FALSE,3.408711321,1.9295,FALSE,638.2667983,,
mp-1289249,MnSiO3,20,Mn1 Si1 O3,5.34225744,6.775902315,6.775898025,86.5107254,76.02439795,76.02474177,mono,C2/c,0,-8.669610447,-2.78336718,0.014492594,FALSE,3.767855278,0,FALSE,230.9714255,,
mp-17766,MnSiO3,40,Mn1 Si1 O3,9.19633119,5.380386584,9.555939406,77.65203509,90,90,mono,P2_1/c,40.0000013,-8.666211504,-2.779968236,0.017891538,FALSE,3.768301127,2.8755,FALSE,461.8881958,,
mp-532143,MnSiO3,80,Mn1 Si1 O3,10.27450598,10.27450598,10.27450598,109.1242751,109.1242751,110.1673626,tet,I4_1/a,80.0027794,-8.600073681,-2.713830414,0.08402936,FALSE,4.169650519,2.6502,TRUE,834.8583659,,
mp-560199,MnSiO3,50,Mn1 Si1 O3,6.691622849,7.610895266,11.85264433,105.504035,92.44071505,94.38126199,tri,P-1,50.0000001,-8.67522066,-2.788977392,0.008882381,FALSE,3.759367343,2.9598,FALSE,578.7322873,,
mp-5945,MnSiO3,70,Mn1 Si1 O3,6.819431,7.709099945,16.26500929,92.1642108,96.39317567,94.87071769,tri,P-1,70.0017624,-8.675314686,-2.789071418,0.008788355,FALSE,3.601547152,2.6058,FALSE,845.7293596,,
mp-647680,MnSiO3,50,Mn1 Si1 O3,6.480352,8.127976055,12.41381273,103.0514044,89.64640537,100.1444924,tri,P-1,46.0011244,-8.374887333,-2.488644066,0.309215708,FALSE,3.472021296,0.0422,FALSE,626.6284323,,
mp-1181816,MnSnO3,10,Mn1 Sn1 O3,13.38637984,7.021364087,6.070160106,132.1863161,148.9760028,37.20302107,tri,P-1,9.9999993,-7.532897433,-1.929803401,0.154089912,FALSE,4.142730087,0.1836,FALSE,177.6858454,,
mp-20569,MnSnO3,10,Mn1 Sn1 O3,5.72769094,5.727692945,5.727694711,55.99954758,55.99956278,55.99958216,trig,R-3,9.9999999,-7.686987345,-2.083893313,0,TRUE,6.105962311,0.8776,FALSE,120.5550346,,
mp-691106,MnSnO3,10,Mn1 Sn1 O3,5.457739231,5.715701212,5.459042913,89.99914042,59.9915232,61.49001909,trig,R3c,7.16E-05,-7.664667748,-2.061573716,0.022319597,FALSE,5.982512339,0.2294,TRUE,123.0427045,,
mp-1176417,MnTeO3,20,Mn1 Te1 O3,5.502735,6.20807,7.879377,90.00004027,89.99960583,90.00011785,ortho,Pnma,0,-7.169690649,-1.739849808,0.034447072,FALSE,5.688807256,3.0063,TRUE,269.1702663,,
mp-1210642,MnTeO3,20,Mn1 Te1 O3,5.587307,5.746398,8.227003,90,90,90,ortho,Pnma,20.0008973,-6.973873359,-1.544032518,0.230264362,FALSE,5.797068219,0.3621,FALSE,264.1434785,,
mp-30528,MnTlCl3,20,Mn1 Tl1 Cl3,7.04429626,7.06118299,10.04233389,90,90,90,ortho,Pnma,20.0000001,-4.831568948,-1.41574947,0.024392236,FALSE,4.862515189,1.2858,TRUE,499.516382,"{'voigt': 34.175, 'reuss': 34.096, 'vrh': 34.135}","{'voigt': 12.937, 'reuss': 12.656, 'vrh': 12.796}"
mp-570290,MnTlCl3,5,Mn1 Tl1 Cl3,5.069273,5.069273,5.069273,90,90,90,cubic,Pm-3m,5.0000036,-4.826653406,-1.410833928,0.029307778,FALSE,4.66137105,1.1477,FALSE,130.2677887,"{'voigt': 34.353, 'reuss': 34.353, 'vrh': 34.353}","{'voigt': 15.35, 'reuss': 15.299, 'vrh': 15.324}"
mp-570300,MnTlCl3,20,Mn1 Tl1 Cl3,3.82193433,8.99668546,14.68728821,90,90,90,ortho,Pnma,20.0000006,-4.855961184,-1.440141706,0,TRUE,4.809537686,1.9323,FALSE,505.0186013,,
mp-998762,MnTlF3,5,Mn1 Tl1 F3,4.23368794,4.236250627,4.235429159,90.00372536,90.03225191,89.9966848,cubic,Pm-3m,5.0000006,-6.051000196,-2.597415334,0,TRUE,6.914697374,2.6304,FALSE,75.96225372,,
mp-23443,MnTlI3,20,Mn1 Tl1 I3,4.322928,10.240036,16.431021,90,90,90,ortho,Pnma,20.0018715,-3.974364912,-0.753259861,0.017026594,FALSE,5.844785937,0,FALSE,727.3509936,,
mp-1311921,MnTlO3,20,Mn1 Tl1 O3,5.640920216,5.551621462,7.836132757,87.99068527,88.49659013,88.57343192,tri,P-1,15.9964423,-6.768601281,-1.493127196,0.06405138,FALSE,8.328550439,0,FALSE,245.0924031,,
mp-753819,MnTlO3,20,Mn1 Tl1 O3,5.567051472,7.933636273,5.489055039,90.01328592,89.99774487,89.28677625,mono,P2_1/c,15.9476982,-6.770699172,-1.495225087,0.061953488,FALSE,8.420498896,0,FALSE,242.4160928,,
mp-768374,MnTlO3,30,Mn1 Tl1 O3,6.131814264,6.131814264,12.013444,90,90,120.0000028,hex_,P6_3cm,24.0150336,-6.801877482,-1.526403397,0.030775178,FALSE,7.827343609,0,FALSE,391.1795387,,
mp-768432,MnTlO3,10,Mn1 Tl1 O3,6.463075571,6.463075571,6.463075971,47.77813675,47.77813675,47.77813151,trig,R-3,5.7796585,-6.710766313,-1.435292228,0.121886347,FALSE,7.528398368,0,FALSE,135.5709636,,
mp-770870,MnTlO3,20,Mn1 Tl1 O3,5.421774,5.560387,7.965304,90,90,90,ortho,Pnma,15.9761536,-6.778915462,-1.503441377,0.053737198,FALSE,8.500617698,0,FALSE,240.1313074,,
mp-1106224,MnVO3,20,Mn1 V1 O3,5.191411315,5.314814513,7.602011001,90.00163278,90.00061667,90.19251805,ortho,Pnma,3.9994284,-8.902717021,-2.284756146,0.041752667,FALSE,4.872875423,0.3157,FALSE,209.7488525,,
mp-1016932,MnZnO3,5,Mn1 Zn1 O3,3.738769,3.738769,3.738769,90,90,90,cubic,Pm-3m,3.1400626,-6.31139953,-1.258271147,0.56117291,FALSE,5.348894748,0,FALSE,52.26198479,,