mp_id,formula,sites,composition,a_edge (angstrom),b_edge (angstrom),c_edge (angstrom),alpha_ang (deg),beta_ang (deg),gamma_ang (deg),crystal_system,space_group,total_magnetisation (bohr),energy_per_atom (eV/atom),formation_energy (eV/atom),energy_above_hull (eV/atom),stable,density (g/cc),band_gap (eV),direct_bandgap,volume (cubic-angstrom),bulk_modulus (GPa),shear_modulus (GPa)
mp-1078348,CeGa3Pd,10,Ce1 Ga3 Pd1,6.067060161,6.067060161,5.85096203,90,90,116.5099518,ortho,Cmcm,2.0792645,-4.724782547,-0.684558597,0,TRUE,7.852816309,0,FALSE,192.724731,,
mp-1226576,CeGa3Pt,5,Ce1 Ga3 Pt1,4.225949,4.225949,6.156234462,69.92650509,69.92650509,90,tet,I-4m2,0.4272703,-4.902717854,-0.684243602,0.014246235,FALSE,9.404170871,0,FALSE,96.12181696,,
mp-1019598,CeGaO3,20,Ce1 Ga1 O3,5.491883,5.588741,7.869412,90,90,90,ortho,Pnma,3.9988675,-7.757944517,-2.996158735,0.127427673,FALSE,7.090504255,0,FALSE,241.5335937,,
mp-22540,CeGaO3,5,Ce1 Ga1 O3,4.413467,4.413467,4.413467,90,90,90,cubic,Pm-3m,0.9933301,-7.001328244,-2.239542462,0.884043946,FALSE,4.980294478,0,FALSE,85.96855976,,
mp-33365,CeGaO3,5,Ce1 Ga1 O3,3.894384,3.894384,3.894384,90,90,90,cubic,Pm-3m,0.9999881,-7.652547534,-2.890761752,0.232824656,FALSE,7.249004293,0,FALSE,59.06311075,"{'voigt': 182.932, 'reuss': 182.932, 'vrh': 182.932}","{'voigt': 46.977, 'reuss': 7.694, 'vrh': 27.336}"
mp-13122,CeGe3Ir,5,Ce1 Ge3 Ir1,4.418200719,4.418200412,5.924727068,111.8921749,111.892168,89.999992,tet,I4mm,0.9814486,-6.383733436,-0.654839913,0,TRUE,9.298201204,0,FALSE,98.26810401,,
mp-13121,CeGe3Rh,5,Ce1 Ge3 Rh1,5.912687084,5.912687084,5.912687084,136.2746128,136.2746128,63.55606405,tet,I4mm,0.9649512,-6.122171596,-0.688103335,0,TRUE,7.852933349,0,FALSE,97.46821145,"{'voigt': 95.289, 'reuss': 95.257, 'vrh': 95.273}","{'voigt': 41.028, 'reuss': 40.402, 'vrh': 40.715}"
mp-1198354,CeGe3Ru,40,Ce1 Ge3 Ru1,9.03402787,9.03402787,9.03402787,90,90,90,cubic,Pm-3n,2.8677902,-6.418039504,-0.601952309,0,TRUE,8.271947605,0,FALSE,737.300075,,
mp-1214689,CeIn3Pt,40,Ce1 In3 Pt1,9.83762838,9.83762838,9.83762838,90,90,90,cubic,Pm-3n,2.0273497,-4.599225788,-0.542104903,0.039835233,FALSE,9.483217754,0.0032,FALSE,952.0751694,,
mp-1213810,CeLuO3,20,Ce1 Lu1 O3,5.770303,5.989802,8.344538,90,90,90,ortho,Pnma,4.0000003,-8.949497311,-3.888993243,0.057024183,FALSE,8.361794095,0.1122,FALSE,288.412037,,
mp-1092225,CeLuS3,10,Ce1 Lu1 S3,6.594528475,6.594528475,9.46316431,90,90,145.9607972,ortho,Cmcm,1.9867427,-20.9899983,-2.384897063,0.005007427,FALSE,5.929373698,0,FALSE,230.3592996,,
mp-1205797,CeLuS3,10,Ce1 Lu1 S3,6.684932775,6.684932775,9.9186,90,90,147.2645127,ortho,Cmcm,1.8386895,-20.84996303,-2.244861796,0.145042694,FALSE,5.698550545,0,FALSE,239.690139,,
mp-1232197,CeMgS3,10,Ce1 Mg1 S3,6.683761677,6.683761677,6.822072412,73.54189177,73.54189177,109.6363613,mono,C2/m,4.70E-06,-5.633451321,-1.636951603,0.261151989,FALSE,3.462955042,0.4021,FALSE,249.9385895,,
mp-1232253,CeMgS3,30,Ce1 Mg1 S3,6.84561,6.845609858,17.554691,90,90,120.0000007,trig,R-3,0.0157519,-5.81884836,-1.822348643,0.07575495,FALSE,3.644628835,1.0618,TRUE,712.4397061,,
mp-1232259,CeMgSe3,10,Ce1 Mg1 Se3,7.023102598,7.023102598,7.170326426,72.55636475,72.55636475,108.944784,mono,C2/m,1.85E-05,-5.093871503,-1.482840639,0.270354924,FALSE,4.650775057,0.1546,FALSE,286.5655637,,
mp-1232360,CeMgSe3,30,Ce1 Mg1 Se3,7.130368,7.13036765,18.927456,90,90,120.0000004,trig,R-3,0.0045581,-5.261986756,-1.650955892,0.102239671,FALSE,4.797597912,0.875,FALSE,833.387041,,
mp-1183706,CeMnO3,5,Ce1 Mn1 O3,3.922932,3.922932,3.922932,90,90,90,cubic,Pm-3m,5.0220103,-8.780599036,-2.792029401,0.377304224,FALSE,6.685230623,0,FALSE,60.37155198,,
mp-1205748,CeNiGe3,10,Ce1 Ni1 Ge3,4.152862,4.170156,11.10566145,90,100.7760382,90,ortho,Cmmm,0.5509713,-5.687227568,-0.569993545,0.010116815,FALSE,7.325139285,0,FALSE,188.9371443,,
mp-776207,CeNiO3,20,Ce1 Ni1 O3,5.319284,5.719727,7.671,90,90,90,ortho,Pnma,8.003602,-8.060477028,-2.748283114,0.095256723,FALSE,7.024042912,1.0117,FALSE,233.3890421,,
mp-866095,CeNiO3,5,Ce1 Ni1 O3,3.785418,3.785418,3.785418,90,90,90,cubic,Pm-3m,1.9985689,-7.708842996,-2.396649083,0.446890755,FALSE,7.555550239,0,FALSE,54.2427287,,
mp-568237,CeNiSb3,40,Ce1 Ni1 Sb3,6.217198126,12.08356078,12.51647355,90.00087633,89.9912925,90.00095176,ortho,Pbcm,0.2107878,-5.528747881,-0.707929827,0,TRUE,7.969212437,0,FALSE,940.3112221,,
mp-579812,CeNiSb3,60,Ce1 Ni1 Sb3,6.26032,12.475883,18.487361,90,90,90,ortho,Pbcm,0.1252581,-5.526587144,-0.70576909,0.002160737,FALSE,7.784586242,0,FALSE,1443.918723,,
mp-1214439,CePbO3,20,Ce1 Pb1 O3,6.859465852,6.859465852,7.816508,90,90,100.9123082,ortho,Cmcm,2.80E-06,-7.465946467,-2.567250476,0.377044176,FALSE,7.270811379,0.7349,FALSE,361.1342055,,
mp-1183759,CePuO3,5,Ce1 Pu1 O3,4.365297,4.365297,4.365297,90,90,90,cubic,Pm-3m,6.0018099,-10.09161471,-2.987861633,0.555282607,FALSE,8.625936262,0,FALSE,83.1843047,,
mp-22519,CeRh3C,5,Ce1 Rh3 C1,4.228548,4.228548,4.228548,90,90,90,cubic,Pm-3m,0.7954981,-7.812814738,-0.361106943,0.145730656,FALSE,10.12111796,0,FALSE,75.60905228,,
mp-1213826,CeRhO3,20,Ce1 Rh1 O3,5.420128,6.01737,7.72623,90,90,90,ortho,Pnma,3.9984864,-8.181784597,-2.552756445,0.169235691,FALSE,7.670922336,0,FALSE,251.9903395,,
mp-1206127,CeRu3C,5,Ce1 Ru3 C1,4.15944336,4.15944336,4.15944336,90,90,90,cubic,Pm-3m,3.87E-05,-8.838676454,-0.240911858,0,TRUE,10.50693653,0,FALSE,71.9624009,,
mp-1078616,CeSb3Pd,10,Ce1 Sb3 Pd1,5.466707,5.466707,9.055911,90,90,90,tet,P4/nmm,1.6588493,-26.66095079,-0.476944873,0.293896945,FALSE,7.507860293,0,FALSE,270.6348626,,
mp-38685,CeSbO3,20,Ce1 Sb1 O3,7.767958314,7.767958314,7.767958314,60,60,60,cubic,Fd-3m,0.6919811,-7.464110035,-2.48214321,0.458075009,FALSE,6.209960621,0,FALSE,331.4405654,,
mp-777413,CeScO3,20,Ce1 Sc1 O3,5.62210231,5.81908325,8.04918263,90,90,90,ortho,Pnma,3.9999998,-9.277669205,-3.855008807,0.013483154,FALSE,5.878825609,0,FALSE,263.3328845,"{'voigt': 163.16, 'reuss': 157.544, 'vrh': 160.352}","{'voigt': 90.692, 'reuss': 83.945, 'vrh': 87.319}"
mp-20953,CeScS3,20,Ce1 Sc1 S3,6.5266654,7.18960587,9.59404885,90,90,90,ortho,Pnma,3.9999999,-15.58355319,-2.31473052,0,TRUE,4.149821121,0,FALSE,450.1926053,,
mp-1068906,CeSi3Ir,5,Ce1 Si3 Ir1,5.760735721,5.760735721,5.760735721,136.835617,136.835617,62.69106985,tet,I4mm,0.8827733,-7.050214108,-0.83994648,0,TRUE,7.828437386,0,FALSE,88.36541769,,
mp-1068364,CeSi3Os,5,Ce1 Si3 Os1,5.816297436,5.816297436,5.816297436,137.5367411,137.5367411,61.61324692,tet,I4mm,0.69443,-7.343072388,-0.65501811,0,TRUE,7.765817587,0,FALSE,88.65308007,,
mp-1207122,CeSi3Pt,5,Ce1 Si3 Pt1,5.700786498,5.700786498,5.700786498,135.5022312,135.5022312,64.75083956,tet,I4mm,0.9400155,-6.454675248,-0.797867792,0,TRUE,7.762667045,0,FALSE,89.72739665,,
mp-1070394,CeSi3Rh,5,Ce1 Si3 Rh1,5.749593511,5.749593511,5.749593511,136.9262954,136.9262954,62.55147273,tet,I4mm,0.9008611,-6.736205532,-0.820763166,0,TRUE,6.20617166,0,FALSE,87.56733368,,
mp-13120,CeSi3Ru,5,Ce1 Si3 Ru1,4.197605821,4.197605119,5.785440998,111.2706126,111.2706053,89.9999986,tet,I4mm,0.7879054,-7.019979984,-0.722518684,0,TRUE,6.176059397,0,FALSE,87.50077524,,
mp-1204796,CeSiAs3,40,Ce1 Si1 As3,5.990837,25.814133,5.908478,90,90,90,ortho,Pna2_1,1.6141964,-17.48643372,-0.73903646,0.030787355,FALSE,5.713124953,0,FALSE,913.7358603,,
mp-651900,CeSiP3,40,Ce1 Si1 P3,5.671875,5.857851,24.57401,90,90,90,ortho,Pna2_1,0.1155863,-14.09248171,-0.768357256,0.019876745,FALSE,4.248570729,0,FALSE,816.4714488,,
mp-1207119,CeSiPt3,5,Ce1 Si1 Pt3,4.07683441,4.07683441,5.49257428,90,90,90,tet,P4mm,0.8595045,-6.96933383,-1.054200258,0,TRUE,13.70513978,0,FALSE,91.28976367,,
mp-1198476,CeSn3Ru,40,Ce1 Sn3 Ru1,9.83108,9.83108,9.83108,90,90,90,cubic,Pm-3n,0.0645792,-5.96755362,-0.519540024,0,TRUE,8.351020352,0.0053,FALSE,950.175199,,
mp-1183701,CeTaO3,5,Ce1 Ta1 O3,4.054684,4.054684,4.054684,90,90,90,cubic,Pm-3m,1.6259545,-9.5829654,-3.053413314,0.35132432,FALSE,9.193428072,0,FALSE,66.6608796,,
mp-1205531,CeTiGe3,10,Ce1 Ti1 Ge3,5.88547431,6.24969541,6.249662113,119.9994634,89.99973222,89.999548,hex_,P6_3/mmc,1.8663144,-6.209606585,-0.669301495,0,TRUE,6.771291595,0,FALSE,199.0810112,,
mp-754524,CeTiO3,5,Ce1 Ti1 O3,3.942692,3.942692,3.942692,90,90,90,cubic,Pm-3m,1.3650876,-9.23293956,-3.49767458,0.083809456,FALSE,6.393636592,0,FALSE,61.28843827,,
mp-1213788,CeTmO3,20,Ce1 Tm1 O3,5.809565,6.026566,8.395389,90,90,90,ortho,Pnma,3.9999339,-8.914985164,-3.862318291,0.066843801,FALSE,8.068296247,0.0948,FALSE,293.9370669,,
mp-541836,CeTmS3,40,Ce1 Tm1 S3,3.93902459,10.99816952,21.46751046,78.63580823,90,90,mono,P2_1/m,7.9550406,-20.40000778,-2.386672925,0.012308965,FALSE,5.904257882,0,FALSE,911.7833485,,
mp-683985,CeTmS3,60,Ce1 Tm1 S3,3.93317325,16.379001,21.10535562,90,90,90,ortho,Pnma,11.1925007,-20.38084057,-2.367505714,0.031476177,FALSE,5.939160655,0,FALSE,1359.637582,,
mp-18769,CeVO3,20,Ce1 V1 O3,5.48327617,5.64619193,7.6941485,90,90,90,ortho,Pnma,12.0000004,-9.198745288,-3.225797496,0.004009322,FALSE,6.665793739,0,FALSE,238.2079881,,
mp-22593,CeVO3,5,Ce1 V1 O3,3.920275,3.920275,3.920275,90,90,90,cubic,Pm-3m,1.0695773,-8.936921746,-2.963973955,0.265832863,FALSE,6.58868283,0,FALSE,60.24896617,,
mp-1226471,CeZnGa3,5,Ce1 Zn1 Ga3,4.28276,4.28276,6.172314939,69.7001594,69.7001594,90,tet,I-4m2,1.0403335,-3.691397964,-0.435201654,0.010980789,FALSE,6.98042341,0,FALSE,98.6495442,,
mp-753945,ClOF3,20,Cl1 O1 F3,4.840671761,7.736365895,7.719745104,102.7205879,89.78477273,89.91727654,tri,P-1,0,-3.424867967,-0.918681053,0,TRUE,2.554349159,3.6609,FALSE,281.9998069,,
mp-1245899,Co3SbN,20,Co3 Sb1 N1,5.484514,5.563497,7.790961,90,90,90,ortho,Pnma,11.880685,-14.82015954,0.087392423,0.126828177,FALSE,8.733215598,0,FALSE,237.7261943,,
mp-20679,Co3SnC,5,Co3 Sn1 C1,3.84709,3.84709,3.84709,90,90,90,cubic,Pm-3m,1.7032352,-6.897381206,0.030316296,0.068668166,FALSE,8.968624197,0,FALSE,56.93732236,,
mp-1206910,CoAgF3,5,Co1 Ag1 F3,4.044962,4.044962,4.044962,90,90,90,cubic,Pm-3m,3.0031567,-4.771893986,-1.629735726,0.26776489,FALSE,5.615122723,0,FALSE,66.18252587,,
mp-1206915,CoAgF3,5,Co1 Ag1 F3,4.383699,4.383699,4.383699,90,90,90,cubic,Pm-3m,2.8372664,-3.983622284,-0.841464024,1.056036592,FALSE,4.411440355,0,FALSE,84.24074113,,
mp-1273356,CoAgO3,20,Co1 Ag1 O3,5.130396276,6.019753941,7.517401906,77.80944957,85.7261858,82.23842171,tri,P-1,0.0021204,-5.70605926,-0.742011777,0.082212319,FALSE,6.352400113,0,FALSE,224.5973885,,
mp-752700,CoAgO3,20,Co1 Ag1 O3,6.968096167,6.968096167,4.998813817,86.70020317,86.70020317,75.15577074,mono,C2/c,7.9992961,-5.325607808,-0.361560325,0.462663771,FALSE,6.097297229,0,FALSE,233.9942474,,
mp-753992,CoAgO3,10,Co1 Ag1 O3,5.956940831,5.956823174,5.956509099,49.6068016,49.60418098,49.60355886,trig,R-3,3.9935635,-5.695152451,-0.731104968,0.093119128,FALSE,6.328664866,0,FALSE,112.7198632,,
mp-1183686,CoAuO3,5,Co1 Au1 O3,3.798996,3.798996,3.798996,90,90,90,cubic,Pm-3m,4.1288082,-5.270631246,-0.220394899,0.623507945,FALSE,9.20386795,0,FALSE,54.82851821,,
mp-1183397,CoBO3,5,Co1 B1 O3,3.354742,3.354742,3.354742,90,90,90,cubic,Pm-3m,3.7646886,-6.641636028,-0.910297727,1.226717351,FALSE,5.178507211,0,FALSE,37.75525238,,
mp-757083,CoBO3,10,Co1 B1 O3,4.905127,5.266612145,5.601817232,88.52340808,109.8063604,117.1815746,tri,P-1,8.0008781,-7.691966077,-1.960627776,0.176387302,FALSE,3.267607545,0.1471,FALSE,119.6691121,,
mp-765572,CoBO3,20,Co1 B1 O3,5.164445329,5.164445329,9.913262399,89.96197537,89.96197537,118.6935462,mono,C2/c,16.0000001,-7.668917093,-1.937578791,0.199436286,FALSE,3.371938188,1.0669,FALSE,231.9328953,,
mp-1188346,CoBiO3,20,Co1 Bi1 O3,5.365408,5.508628,7.629159,90,90,90,ortho,Pnma,8.0020524,-6.550150727,-1.376683918,0.082228795,FALSE,9.30576468,0.3878,FALSE,225.4877037,,
mp-545522,CoBiO3,5,Co1 Bi1 O3,3.72444997,3.72443794,4.02083227,90,90,90,tet,P4mm,0,-6.632379522,-1.458912713,0,TRUE,9.405374547,0,FALSE,55.77490557,,
mp-1181984,CoCO3,10,Co1 C1 O3,6.743591124,6.743591124,5.721781088,73.49745241,73.49745241,86.58768276,mono,C2/c,5.9982237,-7.485859252,-1.244666207,0.421501477,FALSE,1.651785505,1.5474,FALSE,239.1448463,,
mp-21434,CoCO3,10,Co1 C1 O3,5.600724049,5.600796878,5.600603551,49.09562594,49.09799842,49.0918071,trig,R-3c,5.9982556,-7.907360729,-1.666167683,0,TRUE,4.28599732,0,FALSE,92.16431121,,
mp-22136,CoGeO3,20,Co1 Ge1 O3,5.154026239,6.594601194,6.594393125,86.0869454,82.02408475,82.01102945,mono,C2/c,11.9999995,-7.105979349,-1.785913831,0.020114759,FALSE,5.432943126,0,FALSE,219.5386992,,
mp-550220,CoGeO3,20,Co1 Ge1 O3,5.192322469,6.692759041,6.689975416,85.64142762,81.6477913,81.38299526,mono,C2,11.9999893,-7.107330864,-1.787265346,0.018763245,FALSE,5.25272151,1.5623,FALSE,227.0711029,,
mp-1246547,CoMoN3,20,Co1 Mo1 N3,10.17423282,6.352410364,9.44826044,124.7774026,101.3318678,114.6834591,tri,P-1,0.4836573,-8.461275589,0.137504424,0.384047341,FALSE,3.53018321,0,FALSE,370.4612354,,
mp-1183772,CoMoO3,5,Co1 Mo1 O3,3.9836,3.9836,3.9836,90,90,90,cubic,Pm-3m,4.3210656,-7.612427734,-1.047837765,0.673827807,FALSE,5.328963455,0,FALSE,63.21602311,,
mp-1213745,CoNF3,5,Co1 N1 F3,3.767843,3.767843,3.767843,90,90,90,cubic,Pm-3m,6.779742,-4.62857344,-0.387347167,1.334819984,FALSE,4.033640635,0,FALSE,53.49071394,,
mp-1178424,CoNiO3,10,Co1 Ni1 O3,4.805549005,4.80584566,5.174955284,62.33176629,117.6711453,120.0070479,trig,R-3,2.000238,-6.688139231,-1.136651948,0,TRUE,6.296421914,0,FALSE,87.35959764,,
mp-1272234,CoNiO3,10,Co1 Ni1 O3,4.883114862,5.031641255,5.443205872,60.5839049,118.1848064,120.258025,tri,P1,3.9984017,-6.66452157,-1.113034287,0.023617661,FALSE,5.727980853,0.7645,FALSE,96.02910679,,
mp-1279343,CoNiO3,10,Co1 Ni1 O3,4.938243896,4.885106582,5.333241496,63.16126914,116.9175098,120.3538839,tri,P-1,1.60E-05,-6.68777252,-1.136285237,0.000366711,FALSE,5.804929236,0.9607,FALSE,94.75617405,,
mp-676437,CoPS3,10,Co1 P1 S3,5.76964479,5.76964479,6.859621572,98.08595857,98.08595857,119.9910647,mono,C2/m,2.0029148,-9.556377167,-0.288116229,0.103177752,FALSE,3.25656689,0,FALSE,189.7885598,,
mp-1178420,CoPbO3,20,Co1 Pb1 O3,5.522138105,5.774708535,9.552708611,105.8932444,89.88966352,61.49456483,trig,R-3,8.17E-05,-6.418285641,-1.280296279,0.049384604,FALSE,8.205797052,0,FALSE,254.2726563,,
mp-755569,CoPbO3,20,Co1 Pb1 O3,5.326255,5.430663,7.560218,90,90,90,ortho,Pnma,1.7015945,-6.328754997,-1.190765635,0.138915248,FALSE,9.541382463,0,FALSE,218.6800311,,
mp-770488,CoPbO3,40,Co1 Pb1 O3,5.367635,7.646726,10.812615,90,90,90,ortho,Pbam,2.8472328,-6.315443725,-1.177454364,0.15222652,FALSE,9.402886267,0,FALSE,443.801989,,
mp-1183715,CoRhO3,5,Co1 Rh1 O3,3.89383,3.89383,3.89383,90,90,90,cubic,Pm-3m,4.2389291,-6.311539472,-0.443217951,0.796887344,FALSE,5.902010643,0,FALSE,59.03790807,,
mp-1183681,CoSbO3,5,Co1 Sb1 O3,3.764759,3.764759,3.764759,90,90,90,cubic,Pm-3m,0.0018907,-6.28937231,-1.068112115,0.580026284,FALSE,7.116842923,0.2955,FALSE,53.35947409,,
mp-22616,CoSeO3,20,Co1 Se1 O3,5.091809,6.015058,7.660772,90,90,90,ortho,Pnma,12.0008623,-6.37597188,-1.281329637,0.029257131,FALSE,5.262400708,1.852,FALSE,234.6304971,,
mp-562826,CoSeO3,80,Co1 Se1 O3,9.453972892,9.455632534,15.21171729,72.62075671,72.61310859,64.47336131,mono,C2/c,0.0038762,-6.405229011,-1.310586768,0,TRUE,4.302175399,0,FALSE,1147.995681,,
mp-699575,CoSiO3,80,Co1 Si1 O3,5.264575,9.044314,18.463858,90,90,90,ortho,Pbca,48.0057909,-7.931038317,-2.450514764,0.021916501,FALSE,4.080334769,2.6147,FALSE,879.1468013,,
mp-1183692,CoSnO3,5,Co1 Sn1 O3,3.742693,3.742693,3.742693,90,90,90,cubic,Pm-3m,0.0734294,-6.292458916,-1.095084598,0.683751724,FALSE,7.146859736,0,FALSE,52.42671121,,
mp-752613,CoSnO3,20,Co1 Sn1 O3,5.394922,5.422766,7.81053,90,90,90,ortho,Pnma,11.9984819,-6.899944683,-1.702570365,0.076265957,FALSE,6.559055799,0.9832,TRUE,228.5001762,,
mp-761574,CoSnO3,20,Co1 Sn1 O3,5.359883576,5.668033854,9.280310523,105.8480092,89.99906724,61.79111672,trig,R-3,12.0019952,-6.941385222,-1.744010904,0.034825418,FALSE,6.344731786,0,FALSE,236.2188752,,
mp-19113,CoTeO3,20,Co1 Te1 O3,5.397197419,6.066959342,7.567832225,89.99698511,89.97892513,89.95961348,ortho,Pnma,11.9994146,-6.424383083,-1.400261957,0.047210726,FALSE,6.286361179,0,FALSE,247.8053886,,
mp-985545,CoTeO3,5,Co1 Te1 O3,3.779381,3.779381,3.779381,90,90,90,cubic,Pm-3m,0.3665543,-5.758078242,-0.733957116,0.713515566,FALSE,7.214198004,0,FALSE,53.98362279,,
mp-1247505,CoWN3,20,Co1 W1 N3,5.628246968,7.471724806,7.900309469,114.8563168,110.1823734,79.03076357,tri,P-1,0.0017535,-18.3602125,0.037443003,0.316095461,FALSE,6.695033731,0.1728,FALSE,282.5439938,,
mp-1079324,Cr3AsC,10,Cr3 As1 C1,5.337596378,5.337596378,7.465583,90,90,147.5989921,ortho,Cmcm,3.0393979,-8.643539288,-0.071953201,0.06190624,FALSE,7.078671929,0,FALSE,113.97029,,
mp-22209,Cr3AsN,10,Cr3 As1 N1,5.470369498,5.470369498,5.470369498,121.5749358,121.5749358,87.29311231,tet,I4/mcm,5.1964721,-8.731255336,-0.337746798,0.110513479,FALSE,7.206964013,0,FALSE,112.8612774,,
mp-3000,Cr3GaN,5,Cr3 Ga1 N1,3.829202,3.829202,3.829202,90,90,90,cubic,Pm-3m,0.3719384,-13.46210937,-0.30379861,0.022125521,FALSE,7.089651899,0,FALSE,56.14677697,"{'voigt': 295.563, 'reuss': 295.563, 'vrh': 295.563}","{'voigt': 116.7, 'reuss': 104.775, 'vrh': 110.737}"
mp-29804,Cr3GeC,10,Cr3 Ge1 C1,5.341816426,5.341816426,7.648346,90,90,148.8567973,ortho,Cmcm,2.7992277,-8.621903115,-0.059735964,0.034794967,FALSE,7.080418386,0,FALSE,112.8719911,,
mp-637918,Cr3GeN,10,Cr3 Ge1 N1,5.330989,5.330989,4.010243,90,90,90,tet,P-42_1m,0.0487519,-13.92418249,-0.280031404,0.019643324,FALSE,7.070437356,0,FALSE,113.9688752,,
mp-505628,Cr3IrN,5,Cr3 Ir1 N1,3.89412981,3.87556191,3.87562293,90,90,90,cubic,Pm-3m,1.4924314,-21.69919362,-0.357567364,0.011030993,FALSE,10.28312965,0,FALSE,58.49067323,,
mp-1078492,Cr3PC,10,Cr3 P1 C1,5.121017295,5.121017295,7.258164,90,90,146.2460681,ortho,Cmcm,3.0252997,-8.964522721,-0.243866435,0.034978445,FALSE,6.248127603,0,FALSE,105.7603383,,
mp-1080816,Cr3PN,10,Cr3 P1 N1,4.953841909,4.953841909,7.105107,90,90,142.7360972,ortho,Cmcm,4.1012055,-13.15938588,-0.489215054,0.01279957,FALSE,6.321903074,0,FALSE,105.5746906,,
mp-10373,Cr3PdN,5,Cr3 Pd1 N1,3.839933,3.839933,3.839933,90,90,90,cubic,Pm-3m,0.0673678,-15.72070978,-0.258863486,0.074729003,FALSE,8.106619033,0,FALSE,56.62014019,"{'voigt': 1860.568, 'reuss': 1860.568, 'vrh': 1860.568}","{'voigt': 94.681, 'reuss': 92.292, 'vrh': 93.487}"
mp-10374,Cr3PtN,5,Cr3 Pt1 N1,3.91539656,3.91236156,3.91239065,90,90,90,cubic,Pm-3m,6.8029994,-21.4691,-0.301801054,0.108209408,FALSE,10.1153054,0,FALSE,59.93174879,,
mp-21244,Cr3RhN,5,Cr3 Rh1 N1,3.819403,3.819403,3.819403,90,90,90,cubic,Pm-3m,0.7504328,-16.00929701,-0.312295717,0.026633223,FALSE,8.133303417,0,FALSE,55.7168371,,
mp-10376,Cr3SnN,5,Cr3 Sn1 N1,3.936886,3.936886,3.936886,90,90,90,cubic,Pm-3m,2.866661,-15.99281895,-0.173826625,0.125848102,FALSE,7.856785298,0,FALSE,61.01807712,,
mp-19299,CrBO3,10,Cr1 B1 O3,5.445644799,5.445645192,5.445640516,49.79199416,49.79199045,49.79199964,trig,R-3c,6.0000002,-8.855383028,-2.620118577,0,TRUE,4.247466036,0,FALSE,86.63825815,,
mp-1181841,CrBiO3,10,Cr1 Bi1 O3,13.24440037,5.817435677,9.060490957,102.5098738,136.9608451,72.76072967,mono,Cc,12.0002676,-5.734605755,-0.057212796,1.946944696,FALSE,2.255004038,0.0298,FALSE,455.0453581,,
mp-23456,CrBiO3,20,Cr1 Bi1 O3,5.567582328,9.763593378,5.567568029,73.72882512,60.18539801,73.72870368,mono,C2/c,3.24E-05,-7.658867663,-1.981474704,0.022682788,FALSE,8.260522613,1.2937,TRUE,248.441695,,
mp-546027,CrBiO3,10,Cr1 Bi1 O3,5.515867918,5.515866201,5.515333778,89.99986695,59.99684153,59.999914,trig,R3c,0,-7.66684541,-1.989452451,0.014705041,FALSE,8.648452893,1.9847,FALSE,118.648865,,
mp-559851,CrBiO3,20,Cr1 Bi1 O3,5.39780298,5.56848039,7.71661667,89.99996686,89.99973739,89.99994394,ortho,Pnma,0,-7.670347761,-1.992954802,0.01120269,FALSE,8.84812721,1.7905,FALSE,231.9426689,,
mp-1202206,CrCl3O,40,Cr1 Cl3 O1,5.95601,14.526972,12.16005829,90,99.34618792,90,mono,P2_1/c,8.0474427,-5.232928135,-1.203604444,0.145302105,FALSE,2.23105299,1.4763,FALSE,1038.155382,,