mp_id,composition,a_edge (angstrom),b_edge (angstrom),c_edge (angstrom),alpha_ang (deg),beta_ang (deg),gamma_ang (deg),crystal_system,space_group,formation_energy (eV/atom),energy_above_hull (eV/atom),band_gap (eV),A_site,B_site,X_site
mp-8557,Ba1 Pa1 O3,4.49381653,4.49385515,4.49383447,90.0,90.0,90.0,cubic,Pm-3m,-3.563953095,0.0,0.0,Ba,Pa,O
mp-20461,Ba1 Pb1 O3,6.150366446,6.150366446,6.131107946,60.23374128,60.23374128,89.75035477,mono,C2/m,-2.108798318,5.18e-05,0.1934,Ba,Pb,O
mp-20991,Ba1 Pb1 O3,6.038435832,6.038435663,6.103859859,119.6460645,119.6460625,89.99999957,tet,I4/mcm,-2.108112388,0.000737765,0.0273,Ba,Pb,O
mp-21280,Ba1 Pb1 O3,4.362221,4.362221,4.362221,90.0,90.0,90.0,cubic,Pm-3m,-2.081831489,0.027018664,0.0,Ba,Pb,O
mp-22230,Ba1 Pb1 O3,6.076817498,6.076817498,6.076817498,120.1797167,119.3208594,90.43465787,ortho,Imma,-2.108850153,0.0,0.1993,Ba,Pb,O
mp-561598,Ba1 Pb1 O3,4.670138,4.670138,4.670138,90.0,90.0,90.0,cubic,Pm-3m,-1.013678093,1.09517206,0.0,Ba,Pb,O
mp-1178510,Ba1 Pd1 O3,4.128267,4.128267,4.128267,90.0,90.0,90.0,cubic,Pm-3m,-1.685291061,0.028700658,0.0,Ba,Pd,O
mp-22705,Ba1 Pr1 O3,6.410451,6.496936,9.107009,90.0,90.0,90.0,ortho,Pnma,-2.974917452,0.107053415,0.0,Ba,Pr,O
mp-4783,Ba1 Pr1 O3,4.590468,4.590468,4.590468,90.0,90.0,90.0,cubic,Pm-3m,-2.891142755,0.190828111,0.0,Ba,Pr,O
mp-6909,Ba1 Pr1 O3,6.453867262,6.453867262,6.453867262,120.2532187,119.9053724,89.8629755,ortho,Imma,-2.969756294,0.112214572,0.0,Ba,Pr,O
mp-6910,Ba1 Pr1 O3,6.409892022,6.409891918,6.409892022,60.85499792,60.85500082,60.85499792,trig,R-3c,-2.963822677,0.118148189,0.0,Ba,Pr,O
mp-1183290,Ba1 Pt1 O3,4.138181,4.138181,4.138181,90.0,90.0,90.0,cubic,Pm-3m,-1.712383319,0.099315742,0.0,Ba,Pt,O
mp-1214788,Ba1 Pt1 O3,5.865786269,5.865786269,34.996411,90.0,90.0,120.000003,hex_,P6_3/mmc,-1.80698402,0.004715041,0.4159,Ba,Pt,O
mp-505025,Ba1 Pu1 O3,6.21830855,6.22055537,8.74807929,90.0,90.0,90.0,ortho,Pnma,-3.344061895,0.0,0.0,Ba,Pu,O
mp-7143,Ba1 Pu1 O3,4.38110308,4.3811021,4.38110112,90.0,90.0,90.0,cubic,Pm-3m,-3.319721611,0.024340284,0.0,Ba,Pu,O
mp-989637,Ba1 Re1 N3,7.989707039,7.989707039,6.143923285,81.54328598,81.54328598,91.19638265,mono,C2/c,-0.697790989,0.0,1.7855,Ba,Re,N
mp-1183298,Ba1 Re1 O3,4.064732,4.064732,4.064732,90.0,90.0,90.0,cubic,Pm-3m,-2.371119448,0.136362165,0.0,Ba,Re,O
mp-1016850,Ba1 Rh1 O3,4.094455,4.094455,4.094455,90.0,90.0,90.0,cubic,Pm-3m,-1.914429825,0.098336171,0.0,Ba,Rh,O
mp-7685,Ba1 Rh1 O3,5.771510518,5.771510397,9.65416446,89.99994841,90.00004596,119.999956,hex_,P6_3/mmc,-1.99727227,0.015493726,0.0,Ba,Rh,O
mp-1017591,Ba1 Ru1 O3,4.063668,4.063668,4.063668,90.0,90.0,90.0,cubic,Pm-3m,-2.121449641,0.068705431,0.0,Ba,Ru,O
mp-3597,Ba1 Ru1 O3,5.781548756,5.781549011,9.63265614,90.00001575,89.99998765,119.9999587,hex_,P6_3/mmc,-2.190155073,0.0,0.0,Ba,Ru,O
mp-3598,Ba1 Ru1 O3,5.798523923,5.798523923,14.252885,90.0,90.0,119.9999991,hex_,P6_3/mmc,-2.164239095,0.025915977,0.0,Ba,Ru,O
mp-5773,Ba1 Ru1 O3,7.93657385,7.937654844,7.9336013,42.71376996,43.0586862,42.71305534,trig,R-3m,-2.18821901,0.001936062,0.0,Ba,Ru,O
mp-768307,Ba1 S1 O3,5.572643,4.716658,6.797828428,73.2134575,90.0,90.0,mono,P2_1/m,-2.599740154,0.069425328,4.4264,Ba,S,O
mp-18291,Ba1 Sb1 Te3,4.68859283,17.3106177,18.2360371,90.0,90.0,90.0,ortho,P2_12_12_1,-1.041214255,0.0,0.6207,Ba,Sb,Te
mp-1183289,Ba1 Sc1 O3,4.219697,4.219697,4.219697,90.0,90.0,90.0,cubic,Pm-3m,-3.207111032,0.026701069,0.0,Ba,Sc,O
mp-6989,Ba1 Se1 O3,4.727316927,5.68404761,6.881633589,90.0,107.0762024,90.0,mono,P2_1/m,-2.318079119,0.0,3.8866,Ba,Se,O
mp-1070137,Ba1 Si3 Pd1,4.43020383,4.43020383,6.001889522,111.6581145,111.6581145,90.0,tet,I4mm,-0.436197744,0.0,0.0,Ba,Pd,Si
mp-1069809,Ba1 Si3 Pt1,5.949318944,5.949318944,5.949318944,136.2256639,136.2256639,63.63164767,tet,I4mm,-0.553016668,0.002081449,0.0,Ba,Pt,Si
mp-1016821,Ba1 Si1 O3,3.836937,3.836937,3.836937,90.0,90.0,90.0,cubic,Pm-3m,-2.842744941,0.561268265,0.9473,Ba,Si,O
mp-12958,Ba1 Si1 O3,7.479290826,7.479290826,7.479290994,44.14675396,44.14675396,44.1467475,trig,R-3m,-3.10931219,0.294701016,3.0454,Ba,Si,O
mp-18407,Ba1 Si1 O3,5.518273594,5.518273594,13.280251,90.0,90.0,119.9999951,hex_,P6_3/mmc,-2.995445987,0.408567219,2.1249,Ba,Si,O
mp-7339,Ba1 Si1 O3,4.638022,5.691674,12.707909,90.0,90.0,90.0,ortho,P2_12_12_1,-3.381981356,0.022031851,4.5345,Ba,Si,O
mp-776076,Ba1 Si1 O3,6.398849,7.928865,14.3541053,62.05222586,90.0,90.0,mono,P2_1/c,-3.365093342,0.038919864,4.9408,Ba,Si,O
mp-776084,Ba1 Si1 O3,7.519856188,7.519856188,11.3869284,71.26487481,71.26487481,60.14571229,mono,C2/c,-3.404013206,0.0,4.6708,Ba,Si,O
mp-1068048,Ba1 Sn3 Au1,6.653871796,6.653871796,6.653871796,135.2071975,135.2071975,65.20843136,tet,I4mm,-0.502566115,0.0,0.0,Ba,Au,Sn
mp-11269,Ba1 Sn3 Pd1,4.936751667,4.936751817,6.628744194,111.862131,111.8621282,90.00001054,tet,I4mm,-0.646894785,0.0,0.0,Ba,Pd,Sn
mp-30433,Ba1 Sn3 Pt1,4.933648963,4.933649025,6.608819911,111.9708301,111.9708375,89.9763585,tet,I4mm,-0.681184819,0.0,0.0,Ba,Pt,Sn
mp-1178513,Ba1 Sn1 O3,5.923234727,5.923234727,5.923234727,120.0054141,119.8550199,90.12095949,ortho,Imma,-2.586822249,0.000646023,0.6651,Ba,Sn,O
mp-3163,Ba1 Sn1 O3,4.14346542,4.14346542,4.14346542,90.0,90.0,90.0,cubic,Pm-3m,-2.587468272,0.0,0.3724,Ba,Sn,O
mp-1183370,Ba1 Sn1 S3,3.96018971,8.60846534,14.69781739,90.0,90.0,90.0,ortho,Pnma,-1.394226732,0.015674843,0.8569,Ba,Sn,S
mp-1214332,Ba1 Sr1 Bi3,6.84803675,7.01213743,15.74091666,90.0,90.0,90.0,ortho,Pnna,-0.738515049,0.0,0.0,Ba,Sr,Bi
mp-754678,Ba1 Ta1 O3,4.130846,4.130846,4.130846,90.0,90.0,90.0,cubic,Pm-3m,-3.269091094,0.032557649,0.0,Ba,Ta,O
mp-4001,Ba1 Ta1 S3,6.94578854,6.945788839,5.70673887,90.0,90.0,119.9999935,hex_,P6_3/mmc,-1.782052072,0.0,0.0,Ba,Ta,S
mp-1078588,Ba1 Ta1 Se3,7.278414499,7.278414499,5.925888,90.0,90.0,120.0000045,hex_,P6_3/mmc,-1.562408676,0.040600376,0.0,Ba,Ta,Se
mp-1182811,Ba1 Tb1 O3,10.6139007,8.700594201,6.17827138,133.5869581,148.2087823,35.9236669,tri,P-1,-3.108947081,0.106176999,0.0,Ba,Tb,O
mp-20129,Ba1 Tb1 O3,6.25741,6.323942,8.801637,90.0,90.0,90.0,ortho,Pnma,-3.12432066,0.09080342,0.0,Ba,Tb,O
mp-2929,Ba1 Tb1 O3,4.451637,4.451637,4.451637,90.0,90.0,90.0,cubic,Pm-3m,-3.094681416,0.120442664,0.0,Ba,Tb,O
mp-2939,Ba1 Tb1 O3,6.284362399,6.284362399,6.284362399,120.5798009,120.5798009,88.99865509,tet,I4/mcm,-3.117726795,0.097397285,0.0,Ba,Tb,O
mp-548824,Ba1 Tb1 O3,6.232303064,6.232303064,6.232303439,60.97275542,60.97275542,60.97275366,trig,R-3c,-3.12194682,0.09317726,0.0,Ba,Tb,O
mp-5735,Ba1 Tb1 O3,6.272804295,6.272804295,6.272804295,120.4119233,119.6225449,89.97151235,ortho,Imma,-3.12335727,0.09176681,0.0,Ba,Tb,O
mp-555174,Ba1 Tc1 O3,5.79887858,5.798878602,13.95118365,89.99995685,90.00004413,119.9999466,hex_,P6_3/mmc,-2.466365041,0.0,0.0,Ba,Tc,O
mp-5431,Ba1 Te1 O3,4.650439182,5.95910517,7.120932753,90.0,106.4470613,90.0,mono,P2_1/m,-2.357057434,0.0,2.7149,Ba,Te,O
mp-556021,Ba1 Te1 O3,6.15247695,12.37206862,14.88472134,90.0,90.0,90.0,ortho,Pnma,-2.347717885,0.00933955,3.2562,Ba,Te,O
mp-27499,Ba1 Te1 S3,6.98612374,7.56500176,11.07567138,90.0,90.0,90.0,ortho,Pnma,-1.188956507,0.0,1.9088,Ba,Te,S
mp-1189614,Ba1 Th1 O3,6.3660955,6.4142298,9.00638526,90.0,90.0,90.0,ortho,Pnma,-3.775095941,0.0,4.047,Ba,Th,O
mp-8037,Ba1 Th1 O3,4.600115,4.600115,4.600115,90.0,90.0,90.0,cubic,Pm-3m,-3.691689851,0.08340609,3.2033,Ba,Th,O
mp-1076932,Ba1 Ti1 O3,3.764401974,3.764401974,8.881493,90.0,90.0,90.214496,ortho,Amm2,-2.51322162,0.979056358,0.0,Ba,Ti,O
mp-19990,Ba1 Ti1 O3,4.112467,4.112467,5.035613,90.0,90.0,90.0,tet,P4/mmm,-1.684818114,1.807459864,0.0,Ba,Ti,O
mp-2998,Ba1 Ti1 O3,5.666408035,5.666407644,5.668373885,119.9885356,119.9885368,90.00000405,cubic,Pm-3m,-3.477498398,0.01477958,1.6663,Ba,Ti,O
mp-5020,Ba1 Ti1 O3,4.033806555,4.033805893,4.033806146,89.8363828,89.83636958,89.8363873,trig,R3m,-3.492236988,4.1e-05,2.5087,Ba,Ti,O
mp-504715,Ba1 Ti1 O3,4.649145,4.649145,4.649145,90.0,90.0,90.0,cubic,Pm-3m,-0.41478589,3.077492088,0.0,Ba,Ti,O
mp-558125,Ba1 Ti1 O3,5.752887433,5.752887433,14.01903216,90.0,90.0,119.7247726,ortho,C222_1,-3.490981147,0.00129683,2.0811,Ba,Ti,O
mp-5777,Ba1 Ti1 O3,3.98333387,4.057342645,4.057342358,90.25451682,90.0,90.0,ortho,Amm2,-3.492277978,0.0,2.293,Ba,Ti,O
mp-5933,Ba1 Ti1 O3,5.745668326,5.745668382,13.99927295,89.99999183,89.99999815,120.0000582,hex_,P6_3/mmc,-3.489658536,0.002619442,1.7261,Ba,Ti,O
mp-5986,Ba1 Ti1 O3,3.99037921,3.99037921,4.10265539,90.0,90.0,90.0,tet,P4mm,-3.490321404,0.001956574,1.728,Ba,Ti,O
mp-644497,Ba1 Ti1 O3,5.555776618,5.555776618,3.78421,90.0,90.0,107.2641468,ortho,Amm2,-2.77800538,0.714272598,0.3567,Ba,Ti,O
mp-995191,Ba1 Ti1 O3,4.120883055,4.120883055,5.032511,90.0,90.0,90.40670806,ortho,Amm2,-1.685622436,1.806655542,0.0,Ba,Ti,O
mp-7073,Ba1 Ti1 S3,6.80284049,6.802839689,5.85429888,90.0,90.0,120.0000038,hex_,P6_3/mmc,-1.944889652,0.006230597,0.0,Ba,Ti,S
mp-1079893,Ba1 Ti1 Se3,7.108258999,7.108258999,6.05122586,90.0,90.0,120.0,hex_,P6_3/mmc,-1.770214763,0.0,0.0,Ba,Ti,Se
mp-1227345,Ba1 Tl3 Au1,5.062475,5.062475,7.208156014,69.44153997,69.44153997,90.0,tet,I4mm,-0.326513528,0.0137596,0.0,Ba,Au,Tl
mp-1227390,Ba1 Tl1 In3,5.132796,5.132796,7.142914545,68.94321859,68.94321859,90.0,tet,I-4m2,-0.306968907,0.012278903,0.0,Ba,Tl,In
mp-1183393,Ba1 Tl1 O3,4.350242,4.350242,4.350242,90.0,90.0,90.0,cubic,Pm-3m,-1.698419364,0.119237046,0.0,Ba,Tl,O
mp-1183394,Ba1 Tm1 O3,4.374127,4.374127,4.374127,90.0,90.0,90.0,cubic,Pm-3m,-3.193704981,0.072607664,0.0,Ba,Tm,O
mp-35730,Ba1 U1 O3,6.239579931,6.264552011,8.80358892,89.99981005,89.99955897,89.99814566,ortho,Pnma,-3.486460205,0.0,0.0,Ba,U,O
mp-3601,Ba1 U1 S3,7.2908132,7.52588778,10.41371308,90.0,90.0,90.0,ortho,Pnma,-2.021431819,0.0,0.0,Ba,U,S
mp-1017465,Ba1 V1 O3,3.982485,3.982485,3.982485,90.0,90.0,90.0,cubic,Pm-3m,-2.790472743,0.114915919,0.0,Ba,V,O
mp-19150,Ba1 V1 O3,5.77793,5.77792986,11.740997,90.0,90.0,120.0000008,trig,P-3m1,-2.830250003,0.075138659,0.0,Ba,V,O
mp-3451,Ba1 V1 S3,6.809994142,9.003470373,8.973673506,80.16413058,67.87009544,67.60089509,ortho,Cmc2_1,-1.668957399,0.0,0.0,Ba,V,S
mp-4227,Ba1 V1 S3,6.728639532,6.728250045,5.779390955,90.05318513,90.31876557,119.9933859,hex_,P6_3/mmc,-1.6547505,0.0142069,0.0,Ba,V,S
mp-542818,Ba1 V1 S3,8.796108362,8.796108362,11.2768337,50.25078212,50.25078212,45.74183352,mono,Cm,-1.654680979,0.01427642,0.0,Ba,V,S
mp-555857,Ba1 V1 S3,6.796680575,6.796672619,5.687861102,90.00268095,89.99731047,120.791611,ortho,C222_1,-1.665168234,0.003789165,0.0,Ba,V,S
mp-27363,Ba1 V1 Se3,6.022023,7.02663216,7.026632,60.00000075,90.0,90.0,hex_,P6_3/mmc,-1.479556548,0.037731503,0.0,Ba,V,Se
mp-676597,Ba1 V1 Se3,7.035689792,7.035689792,5.902194,90.0,90.0,119.3662653,ortho,Cmc2_1,-1.494618498,0.022669553,0.0,Ba,V,Se
mp-989622,Ba1 W1 N3,5.75731796,7.644877338,10.27788765,48.75827415,90.0,90.0,mono,P2_1/c,-0.821954625,0.0,1.505,Ba,W,N
mp-989636,Ba1 W1 N3,7.229839743,7.229839743,6.573942723,75.42182511,75.42182511,31.57821531,mono,C2/m,-0.811940151,0.010014475,1.0938,Ba,W,N
mp-1183395,Ba1 W1 O3,4.164356,4.164356,4.164356,90.0,90.0,90.0,cubic,Pm-3m,-2.463760293,0.158416016,0.0,Ba,W,O
mp-1227349,Ba1 Zn1 In3,6.928847466,6.928847466,6.928847466,139.7447072,139.7447072,58.24113005,tet,I4mm,-0.344817086,0.0,0.0,Ba,Zn,In
mp-1183405,Ba1 Zn1 O3,4.11496,4.11496,4.11496,90.0,90.0,90.0,cubic,Pm-3m,-1.844181115,0.174294128,0.0,Ba,Zn,O
mp-1019544,Ba1 Zr1 O3,5.95393041,5.95667351,5.95393041,119.9847733,90.0,119.9847733,tet,I4/mcm,-3.639240691,0.0,3.1163,Ba,Zr,O
mp-3834,Ba1 Zr1 O3,4.21238715,4.21238715,4.21238715,90.0,90.0,90.0,cubic,Pm-3m,-3.639168969,7.17e-05,3.0377,Ba,Zr,O
mp-540771,Ba1 Zr1 S3,7.0635613,7.13448881,10.04182376,90.0,90.0,90.0,ortho,Pnma,-2.107120602,0.0,0.99,Ba,Zr,S
mp-1079300,Ba1 Zr1 Se3,7.262620504,7.262620504,6.449106,90.0,90.0,120.0000046,hex_,P6_3/mmc,-1.871148292,0.049314663,0.0,Ba,Zr,Se
mp-998350,Ba1 Zr1 Se3,5.287383,5.296393207,5.309477471,89.89144703,89.91420971,89.96131524,tri,P1,-1.842959045,0.07750391,0.2024,Ba,Zr,Se
mp-998427,Ba1 Zr1 Se3,4.0649102,9.14687945,15.11012795,90.0,90.0,90.0,ortho,Pnma,-1.920462956,0.0,0.3726,Ba,Zr,Se
mp-1183417,Be1 Ag1 O3,3.568391,3.568391,3.568391,90.0,90.0,90.0,cubic,Pm-3m,-0.777852184,0.650631683,0.0,Be,Ag,O
mp-1183414,Be1 Au1 O3,3.570985,3.570985,3.570985,90.0,90.0,90.0,cubic,Pm-3m,-0.62808996,0.841979058,0.0,Be,Au,O
mp-1183422,Be1 B1 O3,3.264797,3.264797,3.264797,90.0,90.0,90.0,cubic,Pm-3m,-1.000599028,1.639571448,0.0,Be,B,O
mp-1183403,Be1 Bi1 O3,3.673799,3.673799,3.673799,90.0,90.0,90.0,cubic,Pm-3m,-1.631539188,0.485461609,0.0,Be,Bi,O
mp-1183418,Be1 Cd1 O3,3.615159,3.615159,3.615159,90.0,90.0,90.0,cubic,Pm-3m,-1.263394712,0.516208148,0.0,Be,Cd,O
mp-1183426,Be1 Cu1 O3,3.461833,3.461833,3.461833,90.0,90.0,90.0,cubic,Pm-3m,-0.822260176,0.844820894,0.0,Be,Cu,O
mp-984722,Be1 Ga1 O3,3.462523,3.462523,3.462523,90.0,90.0,90.0,cubic,Pm-3m,-1.292278802,1.084756912,0.0,Be,Ga,O
mp-1183415,Be1 Ge1 O3,3.504888,3.504888,3.504888,90.0,90.0,90.0,cubic,Pm-3m,-1.188172349,1.34696337,0.0,Be,Ge,O
mp-1183413,Be1 Hg1 O3,3.656609,3.656609,3.656609,90.0,90.0,90.0,cubic,Pm-3m,-0.892067299,0.603098015,0.0,Be,Hg,O
mp-1183436,Be1 In1 O3,3.556543,3.556543,3.556543,90.0,90.0,90.0,cubic,Pm-3m,-1.527801407,0.710374608,0.0,Be,In,O
mp-1188955,Be1 N1 F3,4.719892,4.815126,12.89482,90.0,90.0,90.0,ortho,Pnma,-1.356201164,0.875561598,1.7006,Be,N,F
mp-1214301,Be1 N1 F3,4.724282,6.173578,13.98557892,69.28711201,90.0,90.0,mono,P2_1/c,-1.573651767,0.658110995,0.0,Be,N,F
mp-726347,Be1 N1 F3,5.748968,4.712836786,12.65350768,90.19291389,90.13346454,101.3640886,mono,P2_1/c,-1.567126191,0.664636571,2.6969,Be,N,F
mp-1183431,Be1 Os1 O3,3.437481,3.437481,3.437481,90.0,90.0,90.0,cubic,Pm-3m,-0.746181198,1.301001645,0.0,Be,Os,O
mp-1183499,Be1 Pb1 O3,3.652531,3.652531,3.652531,90.0,90.0,90.0,cubic,Pm-3m,-1.392075338,0.628855202,0.0,Be,Pb,O
mp-1183447,Be1 Pd1 O3,3.498451,3.498451,3.498451,90.0,90.0,90.0,cubic,Pm-3m,-0.850071426,0.827586936,0.0,Be,Pd,O
mp-1183451,Be1 Pt1 O3,3.502685,3.502685,3.502685,90.0,90.0,90.0,cubic,Pm-3m,-0.715818016,1.081286179,0.0,Be,Pt,O
mp-1183476,Be1 Re1 O3,3.454411,3.454411,3.454411,90.0,90.0,90.0,cubic,Pm-3m,-1.008401835,1.371134622,0.0,Be,Re,O
mp-1183443,Be1 Sb1 O3,3.577371,3.577371,3.577371,90.0,90.0,90.0,cubic,Pm-3m,-1.525668536,0.818877773,0.0,Be,Sb,O
mp-1183445,Be1 Si1 O3,3.477388,3.477388,3.477388,90.0,90.0,90.0,cubic,Pm-3m,-1.959788182,1.245697571,0.2691,Be,Si,O
mp-1183449,Be1 V1 O3,3.428947,3.428947,3.428947,90.0,90.0,90.0,cubic,Pm-3m,-1.710029862,1.044593365,0.0,Be,V,O
mp-984552,Be1 Zn1 O3,3.503176,3.503176,3.503176,90.0,90.0,90.0,cubic,Pm-3m,-1.192388182,0.765113784,0.0,Be,Zn,O
mp-31250,Bi1 B1 O3,5.0360157,6.585006132,8.30720892,109.7120783,90.0,90.0,mono,P2_1/c,-2.29046675,0.0,3.0096,Bi,B,O
mp-1178485,Bi1 C1 O3,5.213685,6.977569184,8.634501891,99.08810401,90.02579952,90.62654414,tri,P-1,-1.613041937,0.079999967,1.4111,Bi,C,O
mp-1183479,Bi1 Mo1 O3,4.116636,4.116636,4.116636,90.0,90.0,90.0,cubic,Pm-3m,-1.406245923,0.353929595,0.0,Bi,Mo,O
mp-753455,Bi1 O1 F3,14.828852,4.167796,6.445144496,84.08269529,90.0,90.0,mono,P2_1/c,-2.145899414,0.07703403,0.0241,Bi,O,F
mp-1214261,Bi1 Pb3 Au1,11.510874,11.510874,4.50053,90.0,90.0,90.0,tet,P4_2/mnm,-0.041301747,0.012226241,0.0,Bi,Au,Pb
mp-1183469,Bi1 Pt1 O3,4.070707,4.070707,4.070707,90.0,90.0,90.0,cubic,Pm-3m,-0.754705655,0.548429729,0.0,Bi,Pt,O
mp-680530,Bi1 Pt1 Pb3,11.696226,11.696226,4.177592,90.0,90.0,90.0,tet,P4_2/mnm,-0.165486613,0.002416454,0.0,Bi,Pt,Pb
mp-573119,Bi1 Rh1 O3,5.440072,5.92128,7.812214,90.0,90.0,90.0,ortho,Pnma,-1.346858515,0.061984177,0.4103,Bi,Rh,O
mp-755382,Bi1 Sb1 O3,5.978990721,5.978990721,5.978990232,64.72337449,64.72337449,64.72337334,trig,R-3,-1.618531182,0.086220949,2.1066,Bi,Sb,O
mp-1227486,Bi1 Sb1 S3,3.968885,11.205584,11.867692,90.0,90.0,90.0,ortho,Pnma,-0.348048047,0.002304087,1.3484,Bi,Sb,S
mp-1227508,Bi1 Sb1 Se3,4.113691,11.635594,12.417885,90.0,90.0,90.0,ortho,Pnma,-0.344257173,0.015028588,1.0106,Bi,Sb,Se
mp-1227340,Bi1 Sb1 Te3,10.93960463,10.93960463,10.939605,23.01256525,23.01256525,23.01256526,trig,R3m,-0.431696752,0.004540644,0.2133,Bi,Sb,Te
mp-29526,Br1 N1 O3,4.11367551,6.77359703,11.57273897,90.0,90.0,90.0,ortho,P2_12_12_1,-0.536110497,0.0,2.208,Br,N,O
mp-1079290,C3 I1 N1,8.544118,5.351875,5.96369687,86.69217046,90.0,90.0,mono,P2_1/m,1.737518225,1.803095259,1.9388,I,N,C
mp-722025,C3 I1 N1,8.672597,6.042851,6.838196407,65.76728626,90.0,90.0,mono,P2_1/m,1.629576963,1.695153997,1.951,I,N,C
mp-1080825,C3 N1 Cl1,8.068764,4.893445,6.329732296,71.1496637,90.0,90.0,mono,P2_1/m,1.400056212,1.575996914,2.0218,N,Cl,C
mp-722045,C3 N1 Cl1,6.986712,4.797261,6.890542435,76.89410451,90.0,90.0,mono,P2_1/m,1.218889652,1.394830354,1.325,N,Cl,C
mp-28765,C1 Br3 F1,6.60436,9.502543,10.229411,90.0,90.0,90.0,ortho,Pnma,-0.684165275,0.023877444,3.3196,C,F,Br
mp-23071,C1 Cl3 F1,5.96979399,9.72306833,15.91834851,90.0,90.0,90.0,ortho,Pbca,-1.015510939,0.01192178,4.9147,C,F,Cl
mp-28473,C1 Cl1 F3,5.972616176,5.972616176,4.67918979,90.0,90.0,106.2017154,ortho,Cmc2_1,-1.785901039,0.011826156,6.616,C,Cl,F
mp-556845,C1 I1 F3,4.949012079,4.949012079,19.876594,90.0,90.0,105.9987771,ortho,Cmce,-1.549435815,0.08772001,3.725,C,I,F
mp-1188937,C1 N3 Cl1,10.666603,4.021108,9.828688495,80.18028303,90.0,90.0,mono,P2_1/c,0.734302502,0.910243204,0.3063,C,Cl,N
mp-29700,C1 S3 N1,11.11835603,11.11835603,17.81084568,65.95204365,65.95204365,31.22659952,mono,C2/c,-0.064552311,0.195741675,2.8283,C,N,S
mp-1214236,C1 S1 N3,5.148143,7.219668753,7.331896124,82.74702544,75.43081622,80.6254855,tri,P-1,0.201346617,0.288111279,0.0,C,S,N
mp-1013543,Ca3 As1 N1,5.41143,5.41143,5.41143,90.0,90.0,90.0,cubic,Pm-3m,0.039797013,1.332137823,0.0,As,N,Ca
mp-4192,Ca3 As1 N1,6.72350532,6.71622716,9.52706106,90.0,90.0,90.0,ortho,Pnma,-1.29234081,0.0,0.894,As,N,Ca
mp-7223,Ca3 As1 N1,4.75089971,4.75089971,4.75089971,90.0,90.0,90.0,cubic,Pm-3m,-1.28429731,0.0080435,0.717,As,N,Ca
mp-1013642,Ca3 As1 P1,5.333899,5.333899,5.333899,90.0,90.0,90.0,cubic,Pm-3m,-1.025951139,0.171206283,0.1927,As,P,Ca
mp-1096856,Ca3 As1 P1,5.424854,5.424854,5.424854,90.0,90.0,90.0,cubic,Pm-3m,-0.803385261,0.393772161,0.1089,As,P,Ca
mp-9040,Ca3 Au1 N1,4.844971,4.844971,4.844971,90.0,90.0,90.0,cubic,Pm-3m,-0.860311608,0.02031966,0.0,Au,N,Ca
mp-1013545,Ca3 Bi1 As1,5.53,5.53,5.53,90.0,90.0,90.0,cubic,Pm-3m,-1.09000127,0.087833249,0.0,Bi,As,Ca
mp-1013703,Ca3 Bi1 As1,5.84,5.84,5.84,90.0,90.0,90.0,cubic,Pm-3m,-0.46905776,0.708776759,0.0,Bi,As,Ca
mp-1013542,Ca3 Bi1 N1,5.85,5.85,5.85,90.0,90.0,90.0,cubic,Pm-3m,0.548312925,1.752558042,0.0,Bi,N,Ca
mp-31149,Ca3 Bi1 N1,4.90035347,4.90035347,4.90035347,90.0,90.0,90.0,cubic,Pm-3m,-1.204245117,0.0,0.3687,Bi,N,Ca
mp-1013558,Ca3 Bi1 P1,5.41746624,5.41746624,5.41746624,90.0,90.0,90.0,cubic,Pm-3m,-1.121780491,0.0,0.0759,Bi,P,Ca
mp-1013702,Ca3 Bi1 P1,5.82,5.82,5.82,90.0,90.0,90.0,cubic,Pm-3m,-0.282554173,0.839226318,0.0,Bi,P,Ca
mp-1013704,Ca3 Bi1 Sb1,5.86,5.86,5.86,90.0,90.0,90.0,cubic,Pm-3m,-0.488565882,0.477410401,0.0,Bi,Sb,Ca
mp-1013733,Ca3 Bi1 Sb1,5.81,5.81,5.81,90.0,90.0,90.0,cubic,Pm-3m,-0.64572593,0.320250353,0.0,Bi,Sb,Ca
mp-11822,Ca3 Ge1 N1,4.80418381,4.80418176,4.80418381,90.0,90.0,90.0,cubic,Pm-3m,-0.861410448,0.0,0.0,Ge,N,Ca
mp-17193,Ca3 Ge1 O1,6.66971808,6.66971808,6.66971808,120.089317,119.7906,90.1042207,ortho,Imma,-1.707677987,0.0,0.1402,Ge,O,Ca
mp-9721,Ca3 Ge1 O1,4.71483028,4.71483028,4.71483028,90.0,90.0,90.0,cubic,Pm-3m,-1.70465207,0.003025917,0.0,Ge,O,Ca
mp-1013540,Ca3 P1 N1,5.29,5.29,5.29,90.0,90.0,90.0,cubic,Pm-3m,-0.045294933,1.160128552,0.0,P,N,Ca
mp-11824,Ca3 P1 N1,4.71165792,4.71165792,4.71165792,90.0,90.0,90.0,cubic,Pm-3m,-1.205423485,0.0,0.8056,P,N,Ca
mp-21128,Ca3 Pb1 N1,5.953987,5.953987,5.953987,90.0,90.0,90.0,cubic,Pm-3m,0.748858181,1.484656998,0.0,Pb,N,Ca
mp-20273,Ca3 Pb1 O1,4.84593119,4.84593119,4.84593119,90.0,90.0,90.0,cubic,Pm-3m,-1.689312637,0.0,0.0,Pb,O,Ca
mp-1013544,Ca3 Sb1 As1,5.49,5.49,5.49,90.0,90.0,90.0,cubic,Pm-3m,-0.947144784,0.166019893,0.4006,Sb,As,Ca
mp-1013738,Ca3 Sb1 As1,5.75,5.75,5.75,90.0,90.0,90.0,cubic,Pm-3m,-0.467324045,0.645840631,0.0,Sb,As,Ca