mp_id,composition,a_edge (angstrom),b_edge (angstrom),c_edge (angstrom),alpha_ang (deg),beta_ang (deg),gamma_ang (deg),crystal_system,space_group,formation_energy (eV/atom),energy_above_hull (eV/atom),band_gap (eV),A_site,B_site,X_site
mp-806072,V1 Cr1 O3,5.132856,5.493069529,8.838029634,105.4733244,90.01500136,117.7677285,tri,P1,0.157229953,2.607797684,0.0,V,Cr,O
mp-807999,V1 Cr1 O3,5.097243,5.499617884,8.861646509,105.5820137,89.94178381,117.6000687,tri,P1,0.18316258,2.633730311,0.0,V,Cr,O
mp-1105167,V1 Cu1 O3,6.347573034,6.347573034,6.347573034,109.4712206,109.4712206,109.4712206,cubic,Im-3,-1.737232237,0.153366647,0.0,V,Cu,O
mp-2371810,V1 Cu1 O3,3.196335643,5.006966691,5.824767972,114.2743666,105.9582802,90.00423085,mono,Cm,-1.796338071,0.094260812,0.926,V,Cu,O
mp-504580,V1 Cu1 O3,5.561753345,5.561753345,5.561752805,53.42632745,53.42632745,53.42632882,trig,R-3,-1.796125255,0.094473628,0.659,V,Cu,O
mp-562987,V1 Cu1 O3,3.222381,5.010254467,5.532574663,111.1193469,105.3318435,89.10338146,tri,P1,-1.783999567,0.106599316,0.8024,V,Cu,O
mp-755580,V1 Ga1 O3,5.135831,7.875593,5.139276,89.99956992,89.99982156,90.00066546,ortho,Pnma,-2.309716111,0.09205607,1.6053,V,Ga,O
mp-755199,V1 Ge1 O3,5.27290511,6.796618154,6.796816322,94.20703712,82.6823671,97.31846827,mono,C2/c,-2.159676126,0.07809277,0.0143,V,Ge,O
mp-1178874,V1 H1 O3,5.045671401,8.772322,7.998294714,90.0,105.06245,90.0,mono,P2_1/m,-1.964186263,0.022129907,2.0714,V,H,O
mp-1178894,V1 H1 O3,3.673247,6.182545177,12.11118199,94.31013399,89.36462413,107.0795175,tri,P1,-1.922323203,0.063992967,0.0094,V,H,O
mp-625246,V1 H1 O3,8.570394,5.115848,8.290879816,80.62159446,90.0,90.0,mono,P2_1,-1.937766393,0.048549777,2.1444,V,H,O
mp-625258,V1 H1 O3,8.697049,5.045689,7.871836465,76.027698,90.0,90.0,mono,P2_1,-1.961449931,0.024866239,2.1433,V,H,O
mp-625407,V1 H1 O3,5.189992,8.185303493,8.627587549,89.65306874,87.94920092,82.22967386,tri,P1,-1.937564763,0.048751407,2.1077,V,H,O
mp-627119,V1 H1 O3,3.634134,6.175622328,12.14103132,93.53318591,90.02793286,106.4179583,tri,P1,-1.917086507,0.069229663,0.6363,V,H,O
mp-627209,V1 H1 O3,6.223946161,6.223946161,11.56316317,85.93012148,85.93012148,34.61632975,mono,Cm,-1.843495613,0.142820557,0.0,V,H,O
mp-627684,V1 H1 O3,3.717014,6.09373414,13.14990065,90.51937039,96.43338261,107.0691964,tri,P1,-1.688745391,0.297570779,0.3222,V,H,O
mp-1016938,V1 Hg1 O3,3.864387,3.864387,3.864387,90.0,90.0,90.0,cubic,Pm-3m,-1.500489614,0.291137883,0.0,V,Hg,O
mp-29188,V1 Hg1 O3,3.583442644,4.878733204,8.653536119,85.81277175,77.59814178,88.74475352,tri,P-1,-1.788131404,0.003496093,2.1756,V,Hg,O
mp-972116,V1 Ir1 O3,3.927342,3.927342,3.927342,90.0,90.0,90.0,cubic,Pm-3m,-0.646806045,1.244942714,0.0,V,Ir,O
mp-1246912,V1 Mo1 N3,7.759459112,5.316903748,10.93950166,136.1777023,119.7769645,73.21333554,tri,P-1,-0.458762812,0.300055215,0.0,V,Mo,N
mp-1205732,V1 N1 Cl3,7.301262544,7.301262544,5.920421,90.0,90.0,120.0000049,hex_,P6_3/mmc,-0.186793258,1.032160641,0.0,V,N,Cl
mp-1178820,V1 N1 O3,3.210251,6.014614,18.122809,90.0,90.0,90.0,ortho,Pbcm,-1.33217009,0.387016588,0.0,V,N,O
mp-1189181,V1 N1 O3,3.211532,6.092092,15.468759,90.0,90.0,90.0,ortho,Pbcm,-1.323478126,0.395708552,0.0,V,N,O
mp-1189578,V1 N1 O3,5.219632,12.524772,6.098239,90.0,90.0,90.0,ortho,Pbcm,-0.32968074,1.389505937,0.1755,V,N,O
mp-1206033,V1 Ni1 O3,5.002699851,5.010852072,5.332540498,62.99660905,62.30062598,59.06659542,tri,P-1,-1.970647114,0.030067912,0.0,V,Ni,O
mp-1273627,V1 Ni1 O3,5.051205469,5.498325531,5.040529529,118.0665669,119.5751949,62.62751991,trig,R3,-1.918388258,0.082326768,0.0372,V,Ni,O
mp-556026,V1 O1 F3,5.06642859,5.574411463,9.3150732,91.01902994,90.0,90.0,mono,P2_1/c,-2.714076768,0.0,3.6563,V,O,F
mp-752787,V1 O1 F3,12.453854,4.908887,4.975631748,85.54535392,90.0,90.0,mono,P2_1/c,-2.692940206,0.021136562,3.47,V,O,F
mp-752824,V1 O1 F3,5.334596,7.311551,8.575374,90.0,90.0,90.0,ortho,Pca2_1,-2.684800591,0.029276178,3.2589,V,O,F
mp-753030,V1 O1 F3,5.22677,5.857773,10.115719,90.0,90.0,90.0,ortho,P2_12_12_1,-2.69367785,0.020398918,3.3804,V,O,F
mp-753525,V1 O1 F3,5.35979,5.35979,9.21233,90.0,90.0,90.0,tet,P4_1,-2.689125255,0.024951513,3.2329,V,O,F
mp-754919,V1 O1 F3,5.31313,5.49012,5.594209676,60.23317829,90.0,90.0,mono,Pc,-2.692460821,0.021615947,3.033,V,O,F
mp-756077,V1 O1 F3,5.343035,5.561066082,9.634724895,88.77500877,87.73720758,88.66473128,tri,P1,-2.687694704,0.026382064,2.876,V,O,F
mp-759725,V1 O1 F3,4.914218,5.650224,10.071659,90.0,90.0,90.0,ortho,Pna2_1,-2.666257116,0.047819652,3.0935,V,O,F
mp-759983,V1 O1 F3,7.901217,5.297866,9.093245613,69.9931884,90.0,90.0,mono,P2_1/c,-2.669064529,0.045012239,3.495,V,O,F
mp-760178,V1 O1 F3,4.827354,4.602134,12.84037086,69.67144393,90.0,90.0,mono,P2_1/c,-2.663016669,0.051060099,2.8891,V,O,F
mp-760313,V1 O1 F3,5.647576167,5.647576167,4.968264349,88.46769489,88.46769489,63.01538688,mono,C2,-2.618451449,0.09562532,2.2205,V,O,F
mp-760338,V1 O1 F3,4.855594,5.11303,11.794434,90.0,90.0,90.0,ortho,Pnc2,-2.61777252,0.096304249,2.2258,V,O,F
mp-760367,V1 O1 F3,7.065299913,7.065299913,4.650986901,71.51037298,71.51037298,39.12859484,mono,C2,-2.660430399,0.05364637,2.6463,V,O,F
mp-761122,V1 O1 F3,6.382427,6.419101,10.78271376,67.33637657,90.0,90.0,mono,Pc,-2.689123997,0.024952772,3.8907,V,O,F
mp-761177,V1 O1 F3,5.830825,5.830825,8.17585,90.0,90.0,90.0,tet,P4_1,-2.656001805,0.058074963,3.0386,V,O,F
mp-764274,V1 O1 F3,8.07873528,8.07873528,3.90662956,90.0,90.0,90.0,tet,P-42_1m,-2.707771707,0.006305061,3.4202,V,O,F
mp-775981,V1 O1 F3,5.292168,5.499516474,9.330487658,88.81727375,89.92567902,88.90872852,tri,P-1,-2.651000386,0.063076382,1.8771,V,O,F
mp-776441,V1 O1 F3,5.474497,5.496589802,10.43528246,89.20385312,89.39920396,60.4550218,tri,P-1,-2.651317037,0.062759732,1.8397,V,O,F
mp-776473,V1 O1 F3,5.46281,5.527631802,10.89258904,91.7570513,91.67764443,118.3432952,tri,P1,-2.688407783,0.025668985,2.9487,V,O,F
mp-776474,V1 O1 F3,5.756675,7.633794845,7.67791571,76.42851132,70.7939106,71.68037774,tri,P1,-2.691166176,0.022910593,3.0552,V,O,F
mp-781081,V1 O1 F3,5.400268,5.520821,5.583806279,60.90652385,90.0,90.0,mono,P2_1,-2.69168458,0.022392188,3.1125,V,O,F
mp-850876,V1 O1 F3,5.420504,5.592232996,9.562092995,89.33748494,89.91712503,86.58488211,tri,P1,-2.683935624,0.030141144,2.9248,V,O,F
mp-1187750,V1 Os1 O3,3.912223,3.912223,3.912223,90.0,90.0,90.0,cubic,Pm-3m,-0.833590447,1.08291072,0.0,V,Os,O
mp-1078971,V1 P1 S3,5.933588,5.946927225,6.92239167,81.80297828,73.3935635,60.07417163,mono,C2/m,-0.778070134,0.115854473,0.1223,V,P,S
mp-1070440,V1 Pb1 O3,3.932572,3.932572,3.932572,90.0,90.0,90.0,cubic,Pm-3m,-2.012154289,0.124516472,0.0,V,Pb,O
mp-20032,V1 Pb1 O3,5.419376685,5.419376684,6.26617969,64.38122016,64.38136608,89.99844494,tet,P4mm,-2.114616589,0.022054172,1.3715,V,Pb,O
mp-972184,V1 Pt1 O3,3.81334,3.81334,3.81334,90.0,90.0,90.0,cubic,Pm-3m,-0.956279399,0.846575465,0.0,V,Pt,O
mp-21862,V1 Ru3 C1,4.003409,4.003409,4.003409,90.0,90.0,90.0,cubic,Pm-3m,0.103381651,0.302494621,0.0,V,C,Ru
mp-754608,V1 Si1 O3,5.044745738,6.542455933,6.542457872,93.20770505,82.20503288,97.79496707,mono,C2/c,-2.808797704,0.020424157,0.0,V,Si,O
mp-1207852,V1 Sn1 O3,5.417807,5.629041,7.854641,90.0,90.0,90.0,ortho,Pnma,-1.95823953,0.267822433,0.0,V,Sn,O
mp-1100777,V1 Te1 O3,3.928666,3.928666,3.928666,90.0,90.0,90.0,cubic,Pm-3m,-1.345835018,0.616163889,0.0,V,Te,O
mp-1247461,V1 W1 N3,5.392869396,8.757928076,9.456943364,103.1274766,136.3678199,87.75688258,tri,P-1,-0.459419192,0.360244434,0.0583,V,W,N
mp-1016931,V1 Zn1 O3,3.780363,3.780363,3.780363,90.0,90.0,90.0,cubic,Pm-3m,-1.680350171,0.54949038,0.0,V,Zn,O
mp-1378086,V1 Zn1 O3,5.150506,5.153864,7.643512,90.0,90.0,90.0,ortho,Pnma,-2.124512843,0.105327708,0.8621,V,Zn,O
mp-556208,W1 Cl3 O1,12.249127,12.249127,3.827526,90.0,90.0,90.0,tet,P4_2/mnm,-1.516692035,0.05997516,0.0,W,O,Cl
mp-28573,W1 I3 O1,3.867756,13.986735,13.986735,90.0,90.0,90.0,tet,P4_2/mnm,-0.809930632,0.033221527,0.8858,W,O,I
mp-1188654,W1 N1 Cl3,8.124419915,8.263463251,9.193290534,97.92750325,107.3718253,110.7674543,tri,P-1,-0.85789827,0.0,1.8151,W,N,Cl
mp-753398,W1 O1 F3,5.54778935,4.97041236,9.16448092,90.0,90.0,90.0,ortho,P2_12_12_1,-2.611922758,0.0,2.4411,W,O,F
mp-753808,W1 O1 F3,9.288599696,9.288599696,3.79653573,89.97491461,89.97491461,90.20812376,mono,Cm,-2.462417895,0.149504864,0.0,W,O,F
mp-766847,W1 O1 F3,9.290983,9.290983,3.859623,90.0,90.0,90.0,tet,P-42_1m,-2.475097568,0.13682519,0.0,W,O,F
mp-4448,Y3 Al1 C1,4.88638886,4.88638886,4.88638886,90.0,90.0,90.0,cubic,Pm-3m,-0.392496336,0.0,0.0,Al,C,Y
mp-10601,Y3 Ga1 C1,4.85428524,4.85428317,4.85429039,90.0,90.0,90.0,cubic,Pm-3m,-0.452619005,0.0,0.0,Ga,C,Y
mp-19817,Y3 In1 C1,4.91830942,4.91830942,4.91830942,90.0,90.0,90.0,cubic,Pm-3m,-0.504970119,0.0,0.0,In,C,Y
mp-21017,Y3 Pb1 C1,4.9095349,4.9095349,4.9095349,90.0,90.0,90.0,cubic,Pm-3m,-0.544463837,0.0,0.0,Pb,C,Y
mp-10608,Y3 Sn1 C1,4.88691003,4.88691003,4.8869276,90.0,90.0,90.0,cubic,Pm-3m,-0.632149959,0.0,0.0,Sn,C,Y
mp-9960,Y3 Tl1 C1,4.90973176,4.90973176,4.90973176,90.0,90.0,90.0,cubic,Pm-3m,-0.461994478,0.0,0.0,Tl,C,Y
mp-1094009,Y1 Ag1 O3,4.426715,4.426715,4.426715,90.0,90.0,90.0,cubic,Pm-3m,-1.530661327,0.633616181,0.0,Y,Ag,O
mp-1369676,Y1 Ag1 O3,6.42856308,6.428563841,11.47762573,90.00000099,89.99999844,120.0000154,hex_,P6_3cm,-2.153766482,0.010511026,0.001,Y,Ag,O
mp-1369873,Y1 Ag1 O3,5.493739,6.027972,7.937536,90.0,90.0,90.0,ortho,Pnma,-2.084660176,0.079617332,0.0072,Y,Ag,O
mp-1418929,Y1 Ag1 O3,4.05442,4.05442,4.05442,90.0,90.0,90.0,cubic,Pm-3m,-1.580749917,0.583527591,0.0,Y,Ag,O
mp-1215933,Y1 Al3 Ag1,4.203734,4.185893,6.39242542,70.88833288,70.80368733,90.0,tet,I-4m2,-0.384123769,0.004861145,0.0,Y,Ag,Al
mp-4054,Y1 Al3 Ni1,4.02710599,8.10956377,10.60833375,90.0,90.0,90.0,ortho,Pnma,-0.590546875,0.0,0.0,Y,Ni,Al
mp-3792,Y1 Al1 O3,5.17603105,5.31735851,7.37249317,90.0,90.0,90.0,ortho,Pnma,-3.712238116,0.018835838,5.5402,Y,Al,O
mp-756214,Y1 Al1 O3,5.246494706,5.246494706,5.246495449,60.84808332,60.84808332,60.84808278,trig,R-3c,-3.685266474,0.04580748,4.9586,Y,Al,O
mp-756705,Y1 Al1 O3,6.738056422,6.738056422,10.118139,90.0,90.0,120.1663627,ortho,Cmcm,-3.670636427,0.060437527,4.3247,Y,Al,O
mp-7964,Y1 Al1 O3,3.488568424,3.488568424,11.48382,90.0,90.0,120.000008,hex_,P6_3/mmc,-3.628848293,0.102225661,3.4965,Y,Al,O
mp-1100874,Y1 B1 O3,4.520379,7.901444943,8.47554,90.0,90.0,124.8964625,ortho,Pnma,-3.485943072,0.036316581,4.7952,Y,B,O
mp-1100876,Y1 B1 O3,3.951427249,3.986749114,8.411535,90.0,90.0,111.7159023,ortho,Ama2,-3.445763414,0.076496239,4.4,Y,B,O
mp-1216067,Y1 B1 O3,4.562674618,3.598976581,8.298747,90.0,90.0,66.77864571,ortho,Cmcm,-3.472517096,0.049742557,4.2311,Y,B,O
mp-29205,Y1 B1 O3,6.54242982,6.54242982,8.82893208,90.0,90.0,120.0812712,ortho,Cmcm,-3.522259653,0.0,5.1696,Y,B,O
mp-760457,Y1 B1 O3,3.967622746,3.967622746,8.671747,90.0,90.0,117.3735266,ortho,Ama2,-3.437200336,0.085059317,4.5981,Y,B,O
mp-1018643,Y1 B1 Pd3,4.325036,4.325036,4.325036,90.0,90.0,90.0,cubic,Pm-3m,-0.651283729,0.090775073,0.0,Y,B,Pd
mp-1018644,Y1 B1 Pt3,4.344528,4.344528,4.344528,90.0,90.0,90.0,cubic,Pm-3m,-0.820751535,0.095610442,0.0,Y,B,Pt
mp-29725,Y1 B1 Rh3,4.17882149,4.17882149,4.17882149,90.0,90.0,90.0,cubic,Pm-3m,-0.765475046,0.0,0.0,Y,B,Rh
mp-1358047,Y1 Bi1 O3,6.613613364,6.613613364,13.082135,90.0,90.0,119.9999936,hex_,P6_3cm,-2.677684977,0.120114592,2.065,Y,Bi,O
mp-1369528,Y1 Bi1 O3,5.887518,6.149466,8.667586,90.0,90.0,90.0,ortho,Pnma,-2.632064841,0.165734728,1.6856,Y,Bi,O
mp-1406000,Y1 Bi1 O3,3.845436637,3.845436637,13.152414,90.0,90.0,120.000011,hex_,P6_3/mmc,-2.642528717,0.155270852,2.295,Y,Bi,O
mp-1424898,Y1 Bi1 O3,4.408542,4.408542,4.408542,90.0,90.0,90.0,cubic,Pm-3m,-1.698720087,1.099079482,0.0,Y,Bi,O
mp-754152,Y1 Bi1 O3,6.15131421,6.15131421,6.151314269,58.73187914,58.73187914,58.7318815,trig,R-3,-2.750124736,0.047674833,2.4761,Y,Bi,O
mp-768221,Y1 Bi1 O3,6.165866778,6.165866778,6.165866687,58.51184125,58.51184125,58.51183334,trig,R3c,-2.764777345,0.033022224,3.0748,Y,Bi,O
mp-1215930,Y1 Bi1 Te3,10.84009377,10.84009377,10.84009355,23.45862906,23.45862906,23.45862962,trig,R3m,-1.051943438,0.027144716,1.0247,Y,Bi,Te
mp-1273178,Y1 Co1 O3,5.277178524,5.70734023,7.535437086,90.06302224,90.33811138,90.64618665,tri,P-1,-2.580256242,0.011655867,0.349,Y,Co,O
mp-1288734,Y1 Co1 O3,5.237282321,5.745943143,7.489235914,90.64402726,89.99110148,90.09990999,mono,P2_1/c,-2.576447398,0.01546471,0.1607,Y,Co,O
mp-1330514,Y1 Co1 O3,6.165754349,6.165754349,11.428332,90.0,90.0,120.0000037,hex_,P6_3cm,-2.569189791,0.022722317,0.0073,Y,Co,O
mp-1387356,Y1 Co1 O3,3.630887787,3.630887787,11.219736,90.0,90.0,119.9999961,hex_,P6_3/mmc,-2.485567114,0.106344994,0.0,Y,Co,O
mp-1435972,Y1 Co1 O3,3.785831,3.785831,3.785831,90.0,90.0,90.0,cubic,Pm-3m,-2.360876707,0.231035401,0.833,Y,Co,O
mp-22668,Y1 Co1 O3,5.145785841,5.430099988,7.366162014,89.99832555,90.00001076,89.99682046,ortho,Pnma,-2.591207237,0.000704872,0.0,Y,Co,O
mp-1336975,Y1 Cr1 O3,6.086927758,6.086927758,12.012846,90.0,90.0,119.9999974,hex_,P6_3cm,-3.033086389,0.157926261,1.3989,Y,Cr,O
mp-1387900,Y1 Cr1 O3,3.479088066,3.479088066,11.8855569,90.0,90.0,120.0000081,hex_,P6_3/mmc,-2.973520212,0.217492438,0.0,Y,Cr,O
mp-18725,Y1 Cr1 O3,5.24543586,5.5395879,7.54985526,89.99998068,90.00033939,89.99999979,ortho,Pnma,-3.191012651,0.0,2.4831,Y,Cr,O
mp-18770,Y1 Cr1 O3,3.853879,3.853879,3.853879,90.0,90.0,90.0,cubic,Pm-3m,-2.887705085,0.303307565,1.7679,Y,Cr,O
mp-1333124,Y1 Cu1 O3,6.182344407,6.182343951,11.02980383,89.99989964,89.99999926,119.9981799,hex_,P6_3cm,-2.419534634,0.011914109,0.0056,Y,Cu,O
mp-1340758,Y1 Cu1 O3,5.262028,5.66639,7.494229,90.0,90.0,90.0,ortho,Pnma,-2.408082226,0.023366517,0.0,Y,Cu,O
mp-1432347,Y1 Cu1 O3,3.782154,3.782154,3.782154,90.0,90.0,90.0,cubic,Pm-3m,-2.208991297,0.222457446,0.0,Y,Cu,O
mp-755109,Y1 Er1 O3,5.682581,5.943749,8.37517,90.0,90.0,90.0,ortho,Pnma,-3.907949495,0.097533515,4.5444,Y,Er,O
mp-1275986,Y1 Fe1 O3,3.543624676,12.1601606,6.129449404,75.40342711,90.00431811,81.61830938,hex_,P6_3/mmc,-2.821769902,0.008711736,0.0,Y,Fe,O
mp-1376289,Y1 Fe1 O3,6.100083197,6.100080234,11.68533091,90.00000931,89.99998999,119.9988644,hex_,P6_3cm,-2.816698494,0.013783144,1.2742,Y,Fe,O
mp-1416093,Y1 Fe1 O3,3.883222,3.883222,3.883222,90.0,90.0,90.0,cubic,Pm-3m,-2.489925657,0.340555981,0.6373,Y,Fe,O
mp-20783,Y1 Fe1 O3,5.287706432,5.61975183,7.624140259,90.00052352,89.98426248,90.00015988,ortho,Pnma,-2.818663723,0.011817914,1.5605,Y,Fe,O
mp-1215945,Y1 Ga3 Cu1,6.050809339,6.050809339,6.050809339,140.8916621,140.8916621,56.50190632,tet,I-4m2,-0.457538157,0.013742773,0.0,Y,Cu,Ga
mp-1104503,Y1 Ga3 Ru1,6.3892472,6.3892472,6.3892472,90.0,90.0,90.0,cubic,Pm-3m,-0.58042441,0.0,0.0,Y,Ru,Ga
mp-17853,Y1 Ga1 O3,6.13362246,6.13362246,11.731544,90.0,90.0,120.000005,hex_,P6_3cm,-3.125843045,0.026932728,2.9043,Y,Ga,O
mp-768889,Y1 Ho1 O3,6.425064307,6.425064307,12.76526,90.0,90.0,120.0000032,hex_,P6_3cm,-3.901504207,0.089211476,3.0775,Y,Ho,O
mp-504607,Y1 In1 O3,6.290522379,6.290522344,12.28582555,90.00000511,89.99999218,120.0001276,hex_,P6_3cm,-2.9694,0.004569655,2.0517,Y,In,O
mp-1101170,Y1 Lu1 O3,5.604801,5.890575,8.218506,90.0,90.0,90.0,ortho,Pnma,-3.962743276,0.07608447,4.7426,Y,Lu,O
mp-754226,Y1 Lu1 O3,3.667092147,3.667092147,12.750389,90.0,90.0,120.0000027,hex_,P6_3/mmc,-3.965580118,0.073247628,3.3403,Y,Lu,O
mp-1232166,Y1 Mg1 S3,7.253632357,12.000859,7.268454538,90.0,126.0741365,90.0,mono,C2/m,-1.502187096,0.355176954,0.0,Y,Mg,S
mp-1237973,Y1 Mg1 S3,6.924409257,6.924409257,6.788429894,73.7108485,73.7108485,111.7607614,mono,C2/m,-1.543469868,0.313894181,0.1962,Y,Mg,S
mp-1232305,Y1 Mg1 Se3,7.282711997,7.282711997,6.732510433,73.02566902,73.02566902,110.4041302,mono,C2/m,-1.425933759,0.290010392,0.0,Y,Mg,Se
mp-1232338,Y1 Mg1 Se3,6.913948,6.913948339,19.304446,90.0,90.0,119.9999984,trig,R-3,-1.494799264,0.221144887,0.0,Y,Mg,Se
mp-1434307,Y1 Mn1 O3,3.872255,3.872255,3.872255,90.0,90.0,90.0,cubic,Pm-3m,-2.702431269,0.325051983,0.0,Y,Mn,O
mp-19227,Y1 Mn1 O3,3.58206689,3.582066122,11.25355968,90.0,90.0,119.9999978,hex_,P6_3/mmc,-3.0079632,0.019520052,0.0367,Y,Mn,O
mp-19385,Y1 Mn1 O3,6.137989787,6.137990098,11.44042308,90.00000087,89.99999817,119.9993851,hex_,P6_3cm,-3.027483252,0.0,0.0,Y,Mn,O
mp-20699,Y1 Mn1 O3,5.336231,5.889455,7.49551,90.0,90.0,90.0,ortho,Pnma,-3.004387995,0.023095257,0.4052,Y,Mn,O
mp-989604,Y1 Mo1 N3,6.210994478,7.217226452,7.217225407,98.60305958,105.7173708,74.2826227,mono,C2/c,-1.092841091,0.0,1.9089,Y,Mo,N
mp-1371109,Y1 Mo1 O3,6.290547678,6.290547678,12.517474,90.0,90.0,119.9999966,hex_,P6_3cm,-2.738577646,0.179430564,0.0,Y,Mo,O
mp-1379411,Y1 Mo1 O3,5.40189403,5.81564474,7.82605709,90.0,90.0,90.0,ortho,Pnma,-2.888439059,0.029569151,2.2163,Y,Mo,O
mp-1445377,Y1 Mo1 O3,3.632318292,3.632318292,12.629857,90.0,90.0,120.0000053,hex_,P6_3/mmc,-2.690170795,0.227837415,0.0,Y,Mo,O
mp-1503976,Y1 Mo1 O3,4.088208,4.088208,4.088208,90.0,90.0,90.0,cubic,Pm-3m,-2.313288763,0.604719447,0.0,Y,Mo,O
mp-8467,Y1 Ni1 Ge3,4.06618076,4.08783135,10.94461726,90.0,100.7055416,90.0,ortho,Cmmm,-0.570614413,0.0,0.0,Y,Ni,Ge
mp-1346989,Y1 Ni1 O3,6.180908566,6.180908566,11.359736,90.0,90.0,120.0000061,hex_,P6_3cm,-2.395287508,0.070424734,0.0065,Y,Ni,O
mp-1399857,Y1 Ni1 O3,3.547474344,3.547474344,11.365723,90.0,90.0,120.0000064,hex_,P6_3/mmc,-2.211163741,0.254548501,0.0,Y,Ni,O
mp-1433326,Y1 Ni1 O3,3.756882,3.756882,3.756882,90.0,90.0,90.0,cubic,Pm-3m,-2.255747863,0.209964379,0.0,Y,Ni,O
mp-19242,Y1 Ni1 O3,5.1637085,5.5062684,7.38760105,90.0,90.0,90.0,ortho,Pnma,-2.465712242,0.0,0.0,Y,Ni,O
mp-979436,Y1 Os1 O3,3.964378,3.964378,3.964378,90.0,90.0,90.0,cubic,Pm-3m,-1.846845363,0.73462099,0.0,Y,Os,O
mp-1018629,Y1 Pd3 C1,4.299661,4.299661,4.299661,90.0,90.0,90.0,cubic,Pm-3m,-0.242787053,0.438169278,0.0,Y,C,Pd
mp-1018645,Y1 Pt3 C1,4.324374,4.324374,4.324374,90.0,90.0,90.0,cubic,Pm-3m,-0.253722265,0.512941418,0.0,Y,C,Pt
mp-989611,Y1 Re1 N3,5.471117058,5.471117058,5.471117161,60.99983681,60.99983681,60.99983482,trig,R-3c,-0.84541277,0.032463341,0.0,Y,Re,N
mp-989628,Y1 Re1 N3,7.43632244,7.43632244,6.334765267,72.5418526,72.5418526,81.91295632,mono,C2/c,-0.869046672,0.008829439,0.0,Y,Re,N
mp-989647,Y1 Re1 N3,5.3829449,5.59557393,7.68551211,90.0,90.0,90.0,ortho,Pnma,-0.877876111,0.0,0.0,Y,Re,N
mp-998367,Y1 Re1 N3,3.938282,3.950566802,3.95057015,89.70689621,89.06256047,88.10488658,tri,P1,-0.752196014,0.125680098,0.0,Y,Re,N
mp-22120,Y1 Rh3 C1,4.15423783,4.15423783,4.15423783,90.0,90.0,90.0,cubic,Pm-3m,-0.476305346,0.0,0.0,Y,C,Rh
mp-1207629,Y1 Rh1 O3,5.22677739,5.75872435,7.58046239,90.0,90.0,90.0,ortho,Pnma,-2.547069845,0.0,0.0001,Y,Rh,O
mp-1340878,Y1 Sb1 O3,5.737096,6.044614,8.559337,90.0,90.0,90.0,ortho,Pnma,-2.592731908,0.313278646,0.7162,Y,Sb,O
mp-1347073,Y1 Sb1 O3,6.52334656,6.52334656,12.653419,90.0,90.0,120.0000057,hex_,P6_3cm,-2.666128835,0.239881719,1.4667,Y,Sb,O
mp-1389035,Y1 Sb1 O3,3.774998721,3.774998721,12.859533,90.0,90.0,120.0000126,hex_,P6_3/mmc,-2.649574398,0.256436156,1.4299,Y,Sb,O
mp-1416619,Y1 Sb1 O3,4.250393,4.250393,4.250393,90.0,90.0,90.0,cubic,Pm-3m,-1.909878953,0.996131601,0.0,Y,Sb,O
mp-1215924,Y1 Sb1 Te3,4.350143315,4.350143,10.73297057,78.30784509,101.6921545,119.99999,trig,R3m,-0.993795674,0.03225493,0.8608,Y,Sb,Te
mp-755165,Y1 Sc1 O3,5.468448,5.76218,7.995899,90.0,90.0,90.0,ortho,Pnma,-3.932606217,0.028696065,4.4324,Y,Sc,O
mp-768479,Y1 Sc1 O3,3.590589866,3.590589866,12.444239,90.0,90.0,119.9999975,hex_,P6_3/mmc,-3.930425964,0.030876318,3.2044,Y,Sc,O
mp-769007,Y1 Sc1 O3,6.174025801,6.174025664,12.19474075,89.99999271,90.00000341,120.000053,hex_,P6_3cm,-3.941366085,0.019936197,3.1392,Y,Sc,O
mp-7792,Y1 Sc1 S3,6.38688086,7.00935017,9.52905468,90.0,90.0,90.0,ortho,Pnma,-2.274756047,0.001807512,1.7758,Y,Sc,S
mp-769404,Y1 Se1 O3,12.23956373,5.938537082,8.895160062,73.87316778,90.0,90.0,mono,P2_1/c,-2.499224003,0.0,1.8369,Y,Se,O
mp-1068587,Y1 Si3 Ir1,5.714082086,5.714082086,5.714082086,137.135692,137.135692,62.22933937,tet,I4mm,-0.776719828,0.0,0.0,Y,Ir,Si
mp-10284,Y1 Si3 Ni1,3.916194736,3.96013567,10.65076275,90.0,100.5938368,90.0,ortho,Cmmm,-0.638041398,0.024345344,0.0,Y,Ni,Si