mp_id,formula,sites,composition,a_edge (angstrom),b_edge (angstrom),c_edge (angstrom),alpha_ang (deg),beta_ang (deg),gamma_ang (deg),crystal_system,space_group,total_magnetisation (bohr),energy_per_atom (eV/atom),formation_energy (eV/atom),energy_above_hull (eV/atom),stable,density (g/cc),band_gap (eV),direct_bandgap,volume (cubic-angstrom),bulk_modulus (GPa),shear_modulus (GPa)
mp-1080570,CsNiBr3,10,Cs1 Ni1 Br3,7.556074976,7.556077593,6.27613375,89.99994798,90.0000508,119.999737,hex_,P6_3/mmc,4.0000001,-3.615885824,-1.297944743,0,TRUE,4.61586223,0,FALSE,310.3249117,,
mp-22950,CsNiCl3,10,Cs1 Ni1 Cl3,7.20877398,7.208780297,5.94015344,90.00000375,90.00001846,120.0000326,hex_,P6_3/mmc,3.9999997,-12.64128161,-1.533633926,0,TRUE,3.701541106,0.8049,FALSE,267.3322484,"{'voigt': 15.811, 'reuss': 60.253, 'vrh': 38.032}","{'voigt': 181370587053.898, 'reuss': 29.539, 'vrh': 90685293541.718}"
mp-1194078,CsNiF3,30,Cs1 Ni1 F3,6.109167408,6.109167408,14.715549,90,90,119.9999936,hex_,P6_3/mmc,4,-11.83029003,-2.539912963,0.028610336,FALSE,5.207387743,0,FALSE,475.6321264,,
mp-505492,CsNiF3,15,Cs1 Ni1 F3,8.349917885,8.349917885,8.349918585,43.78677003,43.78677003,43.78677183,trig,R-3m,6.0034086,-11.85148118,-2.561104108,0.007419192,FALSE,4.893373246,5.1948,TRUE,253.0770473,,
mp-557772,CsNiF3,10,Cs1 Ni1 F3,6.2008944,6.200899655,5.19003829,90,90,120.0000268,hex_,P6_3/mmc,4.0000002,-11.85890037,-2.568523299,0,TRUE,4.777049346,5.3618,FALSE,172.8264127,,
mp-611601,CsNiF3,10,Cs1 Ni1 F3,7.429746191,7.429746191,5.42097,90,90,120.0000017,hex_,P6_3/mmc,3.9996598,-11.76413575,-2.47375868,0.09476462,FALSE,3.185768831,4.3878,FALSE,259.1526082,,
mp-1183933,CsNpO3,5,Cs1 Np1 O3,4.391044,4.391044,4.391044,90,90,90,cubic,Pm-3m,2.000006,-8.721830296,-2.983751933,0.089051284,FALSE,8.196376453,0,FALSE,84.66489357,,
mp-1183914,CsOsO3,5,Cs1 Os1 O3,4.055253,4.055253,4.055253,90,90,90,cubic,Pm-3m,0.0180577,-6.716291416,-1.322295503,0.241042683,FALSE,9.241140427,0,FALSE,66.68894741,,
mp-1213226,CsPO3,20,Cs1 P1 O3,4.30527062,6.812608573,13.8045881,66.40094052,90,90,mono,P2_1/c,0,-6.907449082,-2.675831949,0,TRUE,3.793026488,5.4223,TRUE,371.0290178,,
mp-1213232,CsPO3,20,Cs1 P1 O3,4.58139663,6.50273785,13.32108231,90,90,90,ortho,Pnma,0,-6.894313074,-2.662695942,0.013136007,FALSE,3.546174497,5.0865,FALSE,396.8566391,,
mp-504838,CsPS3,10,Cs1 P1 S3,7.245292509,7.530680202,7.53068007,74.19901481,61.24588756,61.2458846,ortho,Immm,0,-12.4755619,-0.834306273,0,TRUE,2.738880732,1.9062,FALSE,315.3575747,,
mp-1183920,CsPaO3,5,Cs1 Pa1 O3,4.42986213,4.42986213,4.42986213,90,90,90,cubic,Pm-3m,0,-8.516854444,-3.459472581,0,TRUE,7.868862178,2.973,FALSE,86.9301902,,
mp-1014168,CsPbBr3,10,Cs1 Pb1 Br3,8.19814187,8.19814187,8.373861777,119.308238,119.308238,90,tet,I4/mcm,0,-3.533178795,-1.628735636,0.007483645,FALSE,4.741253583,1.8178,TRUE,406.1413352,"{'voigt': 17.944, 'reuss': 17.43, 'vrh': 17.687}","{'voigt': 8.35, 'reuss': 6.33, 'vrh': 7.34}"
mp-1120725,CsPbBr3,10,Cs1 Pb1 Br3,8.216920344,8.216920344,6.03736639,90,90,89.94723878,ortho,Amm2,0,-3.531585397,-1.627142238,0.009077043,FALSE,4.723945449,1.955,TRUE,407.6294025,,
mp-567629,CsPbBr3,20,Cs1 Pb1 Br3,8.10107841,8.45384704,11.87891123,90,90,90,ortho,Pnma,0,-3.536078054,-1.631634894,0.004584387,FALSE,4.733981033,2.0121,TRUE,813.5305348,,
mp-567681,CsPbBr3,20,Cs1 Pb1 Br3,4.60907397,9.84551805,16.95083421,90,90,90,ortho,Pnma,0,-3.540662441,-1.636219281,0,TRUE,5.006763123,2.8808,FALSE,769.2071757,"{'voigt': 11.862, 'reuss': 11.343, 'vrh': 11.602}","{'voigt': 5.895, 'reuss': 5.128, 'vrh': 5.511}"
mp-600089,CsPbBr3,5,Cs1 Pb1 Br3,5.94863632,5.94862291,5.94863323,89.99992044,90.00002976,90.00013908,cubic,Pm-3m,0,-3.515589419,-1.611146259,0.025073022,FALSE,4.573928063,1.7819,TRUE,210.4994913,"{'voigt': 18.482, 'reuss': 18.482, 'vrh': 18.482}","{'voigt': 9.735, 'reuss': 6.189, 'vrh': 7.962}"
mp-1539667,CsPbCl3,10,Cs1 Pb1 Cl3,5.75527897,11.13722107,7.875528607,45.00235759,90,90,tet,P4/mbm,0,-3.920044919,-1.888647685,0,TRUE,4.153748274,2.7365,TRUE,356.9651387,,
mp-23037,CsPbCl3,5,Cs1 Pb1 Cl3,5.67984477,5.67984477,5.67984477,90,90,90,cubic,Pm-3m,0,-3.907230807,-1.875833573,0.012814112,FALSE,4.046006565,2.1878,TRUE,183.2354081,,
mp-675022,CsPbCl3,5,Cs1 Pb1 Cl3,5.676943643,5.676943643,5.676942959,89.68499392,89.68499392,89.68498377,trig,R32,0,-3.906402005,-1.875004771,0.013642914,FALSE,4.052396268,2.3105,FALSE,182.9464878,,
mp-675524,CsPbCl3,10,Cs1 Pb1 Cl3,5.76356648,11.13439393,7.867505357,44.95846599,90,90,ortho,Amm2,0,-3.920008634,-1.8886114,3.63E-05,FALSE,4.156244523,2.413,TRUE,356.7507446,,
mp-20282,CsPbF3,10,Cs1 Pb1 F3,6.66475513,6.664755298,6.664756089,62.28894391,62.28893761,62.28893792,trig,R3c,0,-4.854054985,-2.784892366,0,TRUE,5.993799341,3.3374,FALSE,220.0277735,,
mp-5811,CsPbF3,5,Cs1 Pb1 F3,4.83141123,4.83141123,4.83141123,90,90,90,cubic,Pm-3m,0,-4.844948768,-2.775786149,0.009106217,FALSE,5.846927311,2.9083,TRUE,112.7773832,,
mp-1069538,CsPbI3,5,Cs1 Pb1 I3,6.27514229,6.27514229,6.27514229,90,90,90,cubic,Pm-3m,0,-3.076709898,-1.240027091,0.025049344,FALSE,4.844004144,1.4785,TRUE,247.0988555,,
mp-1120768,CsPbI3,20,Cs1 Pb1 I3,8.853381,8.930536,12.757759,90,90,90,ortho,Pnma,8.52E-05,-3.085935925,-1.249253118,0.015823317,FALSE,4.746507349,1.6421,TRUE,1008.6978,,
mp-540839,CsPbI3,20,Cs1 Pb1 I3,4.84714164,10.65044663,18.03119927,90,90,90,ortho,Pnma,0,-3.101759242,-1.265076435,0,TRUE,5.143480377,2.5181,FALSE,930.8466583,"{'voigt': 9.96, 'reuss': 9.663, 'vrh': 9.811}","{'voigt': 4.984, 'reuss': 4.23, 'vrh': 4.607}"
mp-1185545,CsPbO3,5,Cs1 Pb1 O3,4.480574,4.480574,4.480574,90,90,90,cubic,Pm-3m,1.0528167,-5.014652548,-1.123600707,0.208596988,FALSE,7.164664583,0,FALSE,89.94995766,,
mp-998306,CsPdBr3,5,Cs1 Pd1 Br3,5.333320029,5.332805486,5.331624007,90.02072608,89.99146912,90.01612854,ortho,Amm2,0.0002148,-3.43541506,-1.237524953,0.001872894,FALSE,5.245727348,0,FALSE,151.6396775,,
mp-998307,CsPdBr3,5,Cs1 Pd1 Br3,5.278741728,5.279763407,5.280560992,90.01324861,90.01654079,89.9962693,cubic,Pm-3m,6.00E-07,-3.435474112,-1.237584005,0.001813842,FALSE,5.404974606,0,FALSE,147.1719039,"{'voigt': 33.583, 'reuss': 33.583, 'vrh': 33.583}","{'voigt': 17.669, 'reuss': 16.548000000000002, 'vrh': 17.108}"
mp-1147710,CsPdCl3,5,Cs1 Pd1 Cl3,5.063224,5.063224,5.063224,90,90,90,cubic,Pm-3m,1.34E-05,-14.52949707,-1.226102103,0.052206694,FALSE,4.422293068,0,FALSE,129.8020118,,
mp-29882,CsPdCl3,20,Cs1 Pd1 Cl3,9.731227933,9.731118095,9.731146617,127.0591202,113.7644307,89.67807688,ortho,Ibam,0,-14.57424164,-1.270846671,0.007462126,FALSE,3.60723707,1.4655,TRUE,636.5232181,,
mp-1207302,CsPdF3,5,Cs1 Pd1 F3,4.414264,4.414264,4.414264,90,90,90,cubic,Pm-3m,0.0025565,-13.50842996,-2.022305603,0.073591718,FALSE,5.720528094,0,FALSE,86.01514172,,
mp-1183913,CsPdO3,5,Cs1 Pd1 O3,4.199705,4.199705,4.199705,90,90,90,cubic,Pm-3m,2.1250169,-4.873876142,-0.689377353,0.238677719,FALSE,6.441160474,0,FALSE,74.0723897,,
mp-1183919,CsPrO3,5,Cs1 Pr1 O3,4.754944,4.754944,4.754944,90,90,90,cubic,Pm-3m,2.0000285,-6.231176656,-2.123559937,0.281342041,FALSE,4.970661286,0,FALSE,107.5068704,,
mp-1213235,CsPtBr3,20,Cs1 Pt1 Br3,5.142124,11.553721,16.00263,90,90,90,ortho,Pnma,0.2696398,-3.392201976,-1.016061567,0.254459914,FALSE,3.966188113,0,FALSE,950.7269067,,
mp-2647156,CsPuO3,20,Cs1 Pu1 O3,6.295903,6.294651,8.783976,90,90,90,tet,P4/mbm,11.999999,-8.905677414,-2.809568491,0.080952522,FALSE,8.107346366,0,FALSE,348.1134673,,
mp-1183926,CsRbO3,5,Cs1 Rb1 O3,4.559767,4.559767,4.559767,90,90,90,cubic,Pm-3m,7.80E-05,-3.76243748,-0.417808238,0.664383742,FALSE,4.665614176,0,FALSE,94.80428202,,
mp-1183971,CsRuO3,5,Cs1 Ru1 O3,4.070421,4.070421,4.070421,90,90,90,cubic,Pm-3m,0.6265599,-6.273033112,-1.269630177,0.378263059,FALSE,6.942879628,0,FALSE,67.44006663,,
mp-1068320,CsSO3,5,Cs1 S1 O3,5.038275367,5.038275367,5.038275321,77.32926371,77.32926371,77.32926742,trig,R3m,0.9999548,-5.862468574,-1.886274233,0.187430761,FALSE,2.953092585,0.4314,FALSE,119.7533624,,
mp-561681,CsSO3,20,Cs1 S1 O3,6.33106207,6.33106359,11.60598051,90,90,120.0000026,hex_,P6_3mc,0,-6.049899335,-2.073704994,0,TRUE,3.511228284,5.1115,TRUE,402.8707197,,
mp-1185561,CsSbO3,5,Cs1 Sb1 O3,4.19501,4.19501,4.19501,90,90,90,cubic,Pm-3m,0.0202912,-5.590575104,-1.616252429,0.325578188,FALSE,6.807856049,0,FALSE,73.82424282,,
mp-1213644,CsScBr3,10,Cs1 Sc1 Br3,6.24129426,7.90037667,7.900346061,119.9999604,89.9999811,89.99999979,hex_,P6_3/mmc,1.28E-05,-4.440707495,-2.012299929,0.013903533,FALSE,4.110668965,0,FALSE,337.364497,,
mp-998308,CsScBr3,5,Cs1 Sc1 Br3,5.519352,5.522903,5.523968089,89.98971076,90,90,mono,Pm,0.9999759,-4.35699825,-1.928590684,0.097612778,FALSE,4.117894573,0,FALSE,168.3862643,,
mp-998435,CsScBr3,20,Cs1 Sc1 Br3,4.039991,9.890683,16.90108,90,90,90,ortho,Pnma,4.0010735,-4.370759205,-1.942351638,0.083851824,FALSE,4.106962516,0,FALSE,675.3379231,,
mp-27359,CsScCl3,10,Cs1 Sc1 Cl3,7.524826618,7.524822967,5.96927696,89.99970901,90.00015791,119.9997772,hex_,P6_3/mmc,1.77E-05,-13.20213937,-2.211137647,0.010033707,FALSE,3.224691431,0,FALSE,292.7157701,,
mp-1206489,CsScI3,10,Cs1 Sc1 I3,6.731541691,8.503741291,8.498150621,120.0308927,90.01295808,89.9984006,hex_,P6_3/mmc,5.75E-05,-3.907052393,-1.546405179,0,TRUE,4.404697294,0,FALSE,421.1573108,,
mp-998413,CsSeBr3,10,Cs1 Se1 Br3,9.321875,6.046609,7.684067645,80.62696368,90,90,mono,P2_1/m,0.0036269,-2.97924072,-1.118144679,0.039469539,FALSE,3.509476663,1.2544,FALSE,427.3355104,,
mp-998415,CsSeBr3,5,Cs1 Se1 Br3,5.575018,5.559635,5.560463654,89.91136378,90,90,mono,Pm,0.0022038,-2.982448976,-1.121352935,0.036261283,FALSE,4.350892021,0,FALSE,172.3467272,,
mp-1147745,CsSiI3,5,Cs1 Si1 I3,6.133592124,6.133592124,6.133591975,87.52193411,87.52193411,87.52193314,trig,R3m,0.0019891,-3.117877412,-0.938660413,0.105111749,FALSE,3.908883423,0.832,TRUE,230.122303,,
mp-570957,CsSiTe3,20,Cs1 Si1 Te3,8.285141902,8.285141902,13.56096589,84.53407253,84.53407253,117.8988932,mono,Cc,0,-22.60731803,-0.582389612,0,TRUE,4.467287673,1.2613,TRUE,808.5318751,,
mp-1213166,CsSmBr3,20,Cs1 Sm1 Br3,8.012571,8.362195,11.650269,90,90,90,ortho,Pnma,0.9245002,-4.064680862,-1.95904989,0.088015148,FALSE,4.450040041,0,FALSE,780.5992592,,
mp-567939,CsSmCl3,5,Cs1 Sm1 Cl3,5.499794,5.499794,5.499794,90,90,90,cubic,Pm-3m,0.0067704,-16.81394198,-2.156052866,0.116181794,FALSE,3.889161995,0,FALSE,166.3563062,,
mp-1205876,CsSmI3,10,Cs1 Sm1 I3,8.555115574,8.555115574,12.017084,90,90,148.661926,ortho,Cmcm,1.0495666,-3.568075503,-1.530204883,0.05909128,FALSE,4.820661721,0,FALSE,457.4321549,,
mp-1184022,CsSmO3,5,Cs1 Sm1 O3,4.654806,4.654806,4.654806,90,90,90,cubic,Pm-3m,2.003056,-6.280498904,-2.18825925,0.282983777,FALSE,5.454037584,0,FALSE,100.8567005,,
mp-1247749,CsSnBr3,20,Cs1 Sn1 Br3,8.1224956,8.22973192,11.71381062,90,90,90,ortho,Pnma,0,-3.537762078,-1.573933961,0,TRUE,4.167798819,0.9682,TRUE,783.0209315,,
mp-27214,CsSnBr3,5,Cs1 Sn1 Br3,5.83900561,5.83900561,5.83900561,90,90,90,cubic,Pm-3m,0,-3.526566938,-1.562738822,0.01119514,FALSE,4.098297207,0.5984,TRUE,199.0749785,,
mp-1070375,CsSnCl3,5,Cs1 Sn1 Cl3,5.56478593,5.56478593,5.56478593,90,90,90,cubic,Pm-3m,0,-15.21728715,-1.556746142,0.022686822,FALSE,3.449496777,0.9787,TRUE,172.3238491,,
mp-27394,CsSnCl3,20,Cs1 Sn1 Cl3,5.799722939,7.49022164,16.31739822,90,93.18164942,90,mono,P2_1/c,0,-15.23997397,-1.579432963,0,TRUE,3.359527765,2.9154,TRUE,707.7549034,,
mp-1105915,CsSnF3,20,Cs1 Sn1 F3,6.669265,4.961346,15.32983109,72.22332109,90,90,mono,P2_1/c,0.0025162,-4.91097603,-2.782428454,0,TRUE,4.243776148,3.7852,FALSE,483.0227061,,
mp-998298,CsSnF3,5,Cs1 Sn1 F3,4.772341,4.915838992,5.04052016,94.56653921,92.35238713,91.16891364,tri,P1,3.48E-05,-4.8845004,-2.755952824,0.02647563,FALSE,4.352363781,3.099,TRUE,117.742929,,
mp-998457,CsSnF3,10,Cs1 Sn1 F3,6.639187687,6.639187687,6.639186762,64.60244617,64.60244617,64.60245488,trig,R3c,0,-4.897409129,-2.768861553,0.013566901,FALSE,4.499163426,3.828,FALSE,227.8023763,,
mp-27381,CsSnI3,20,Cs1 Sn1 I3,4.78277107,10.59766711,17.96459847,90,90,90,ortho,Pnma,0,-3.076204436,-1.180136671,0.003249339,FALSE,4.612588503,2.0632,FALSE,910.5575124,"{'voigt': 10.102, 'reuss': 9.648, 'vrh': 9.875}","{'voigt': 5.151, 'reuss': 4.418, 'vrh': 4.784}"
mp-568570,CsSnI3,20,Cs1 Sn1 I3,8.67777634,8.72973079,12.62389428,90,90,90,ortho,Pnma,0,-3.068394613,-1.172326849,0.011059161,FALSE,4.391869647,0.6175,TRUE,956.3187093,,
mp-614013,CsSnI3,5,Cs1 Sn1 I3,6.286228,6.286228,6.286228,90,90,90,cubic,Pm-3m,0.0044224,-3.079453774,-1.18338601,0,TRUE,4.226897499,0.45,TRUE,248.4107501,"{'voigt': 15.373, 'reuss': 15.373, 'vrh': 15.373}","{'voigt': 8.736, 'reuss': 6.12, 'vrh': 7.428}"
mp-616378,CsSnI3,10,Cs1 Sn1 I3,6.36120441,8.66038717,8.66038717,90,90,90,tet,P4/mbm,0,-3.06760978,-1.171542016,0.011843994,FALSE,4.40157525,0.5537,TRUE,477.1049993,"{'voigt': 15.327, 'reuss': 15.128, 'vrh': 15.227}","{'voigt': 7.708, 'reuss': 6.248, 'vrh': 6.978}"
mp-984745,CsSnO3,5,Cs1 Sn1 O3,4.274027,4.274027,4.274027,90,90,90,cubic,Pm-3m,1.0001821,-5.480339814,-1.529903016,0.269505732,FALSE,6.372339584,0,FALSE,78.07496247,,
mp-561710,CsSnS3,10,Cs1 Sn1 S3,6.806630875,7.512150706,7.708016994,99.13702219,114.4060213,107.952534,tri,P-1,0,-15.63081965,-0.840742537,0,TRUE,3.584270415,1.6557,FALSE,322.2707978,,
mp-1542038,CsSnSe3,10,Cs1 Sn1 Se3,7.214481837,8.113777919,8.117159135,102.6500605,106.4986158,113.7403009,tri,P-1,0,,,,FALSE,4.205213588,1.1896,FALSE,385.7905263,"{'voigt': 15.362, 'reuss': 9.886, 'vrh': 12.624}","{'voigt': 7.834, 'reuss': 4.462, 'vrh': 6.148}"
mp-613162,CsSnSe3,10,Cs1 Sn1 Se3,7.160679364,7.595218796,8.107192891,97.88821488,115.0799718,107.5658015,tri,P-1,2.00E-07,-19.36545694,-0.809443137,0.003953939,FALSE,4.477434637,1.0499,FALSE,362.3350635,,
mp-1213104,CsSrBr3,20,Cs1 Sr1 Br3,8.21232242,8.50669965,11.79237493,90,90,90,ortho,Pnma,0,-3.849744316,-2.349344953,0,TRUE,3.710758369,4.5563,FALSE,823.8124855,,
mp-998297,CsSrBr3,5,Cs1 Sr1 Br3,5.968694843,5.973740097,5.969721983,89.98402263,89.94558956,89.94529417,mono,Cm,0,-3.82813166,-2.327732297,0.021612656,FALSE,3.590472952,4.1683,FALSE,212.8528133,,
mp-998433,CsSrBr3,10,Cs1 Sr1 Br3,4.554085013,7.888814629,11.54804055,90,90,106.7981904,ortho,Cmcm,0,-3.847444793,-2.34704543,0.002299523,FALSE,3.848387715,4.5637,TRUE,397.175298,,
mp-1080233,CsSrCl3,5,Cs1 Sr1 Cl3,5.675257343,5.675257343,5.674353518,89.90271566,89.90271566,90.10731875,mono,Cm,0,-14.26776054,-2.527324074,0.015167956,FALSE,2.970009715,5.0049,FALSE,182.7618273,,
mp-1213084,CsSrCl3,20,Cs1 Sr1 Cl3,7.87290647,8.03044119,11.26828583,90,90,90,ortho,Pnma,0,-14.28292849,-2.542492029,0,TRUE,3.047691474,5.3123,FALSE,712.4138479,,
mp-1213642,CsSrCl3,5,Cs1 Sr1 Cl3,5.67282446,5.67282446,5.67282446,90,90,90,cubic,Pm-3m,0,-14.26795083,-2.527514365,0.014977664,FALSE,2.973345157,4.97,FALSE,182.5568086,,
mp-1213645,CsSrCl3,10,Cs1 Sr1 Cl3,7.86750071,7.86750071,5.75739201,90,90,90,tet,P4/mbm,0,-14.27997558,-2.539539117,0.002952913,FALSE,3.04630915,5.0045,FALSE,356.3685601,,
mp-998561,CsSrCl3,10,Cs1 Sr1 Cl3,7.926297182,7.926296606,7.926297108,60.9945339,60.99453159,60.99453646,trig,R3c,0,-14.27866651,-2.538230045,0.004261984,FALSE,3.015472686,5.2868,FALSE,360.0128133,,
mp-8397,CsSrF3,5,Cs1 Sr1 F3,4.76324701,4.76324701,4.76324701,90,90,90,cubic,Pm-3m,0,-13.56568844,-3.642522589,0.019347564,FALSE,4.264175877,6.1846,FALSE,108.071035,"{'voigt': 39.37, 'reuss': 39.37, 'vrh': 39.37}","{'voigt': 21.992, 'reuss': 18.223, 'vrh': 20.108}"
mp-1080232,CsSrI3,10,Cs1 Sr1 I3,8.487576926,8.487576926,12.32933082,90,90,146.5816981,ortho,Cmcm,0,-3.325436342,-1.892797331,0,TRUE,4.081941154,3.959,FALSE,489.1695303,,
mp-998417,CsSrI3,5,Cs1 Sr1 I3,6.472272848,6.472272848,6.464808663,89.90800579,89.90800579,89.98905811,mono,Cm,0,-3.293743324,-1.861104313,0.031693018,FALSE,3.686616465,3.6132,FALSE,270.8121737,,
mp-1183972,CsSrO3,5,Cs1 Sr1 O3,4.929642,4.929642,4.929642,90,90,90,cubic,Pm-3m,3,-4.870726622,-1.383718577,0.43552539,FALSE,3.722078249,0,FALSE,119.7970554,,
mp-1185552,CsTaO3,5,Cs1 Ta1 O3,4.144158,4.144158,4.144158,90,90,90,cubic,Pm-3m,0.0001853,-8.29975521,-2.777847274,0.25341569,FALSE,8.442490841,1.8627,TRUE,71.17195817,,
mp-1225870,CsTaS3,10,Cs1 Ta1 S3,7.427573231,7.427573231,6.03641524,90,90,120.0000127,hex_,P6_3mc,0,-6.472226546,-1.436079473,0,TRUE,4.721832479,0.5151,TRUE,288.4055194,,
mp-1225880,CsTaSe3,10,Cs1 Ta1 Se3,7.684374984,7.684374984,6.18527967,90,90,119.9999923,hex_,P6_3mc,0,-24.49579592,-1.170652332,0.006590422,FALSE,5.782469482,0.1213,TRUE,316.3057637,,
mp-685607,CsTaSe3,20,Cs1 Ta1 Se3,6.20693143,7.68985284,13.33275792,90,90,90,ortho,Pnma,0,-24.50238634,-1.177242754,0,TRUE,5.748247784,0.0868,TRUE,636.3777258,,
mp-1228798,CsTaTe3,10,Cs1 Ta1 Te3,6.362924061,8.25951784,8.259457974,120.0075044,89.99997071,89.99872314,hex_,P6_3mc,1.09E-05,-5.283310629,-0.84419576,0,TRUE,6.155099004,0,FALSE,375.8899971,,
mp-1185551,CsTbO3,5,Cs1 Tb1 O3,4.593958,4.593958,4.593958,90,90,90,cubic,Pm-3m,2.0151148,-6.324694138,-2.248598986,0.282758344,FALSE,5.820341625,0,FALSE,96.9529574,,
mp-1183976,CsTeO3,5,Cs1 Te1 O3,4.259985,4.259985,4.259985,90,90,90,cubic,Pm-3m,0.0002706,-5.202820362,-1.425636756,0.302410399,FALSE,6.626515179,0,FALSE,77.30795936,,
mp-9462,CsTeSe3,20,Cs1 Te1 Se3,6.867251,7.711609,13.81637211,83.85481819,90,90,mono,P2_1/c,0.0003308,-3.657964072,-0.752010182,0,TRUE,4.541328801,0.9842,FALSE,727.4769216,,
mp-1183997,CsThO3,5,Cs1 Th1 O3,4.575334,4.575334,4.575334,90,90,90,cubic,Pm-3m,0.7293395,-7.59697365,-2.965679573,0.146533562,FALSE,7.159281549,0,FALSE,95.77858339,,
mp-22962,CsTiBr3,10,Cs1 Ti1 Br3,7.6265278,7.626528711,6.53842333,90.00003531,90.00001716,119.9999323,hex_,P6_3/mmc,4.0000001,-4.453842156,-1.712830008,0,TRUE,4.240053185,0,FALSE,329.3500476,"{'voigt': -20327607757.99, 'reuss': 27539550.975, 'vrh': -10150034103.507}","{'voigt': 623562522.377, 'reuss': 19.198, 'vrh': 311781270.787}"
mp-28283,CsTiCl3,10,Cs1 Ti1 Cl3,7.40115554,7.401156238,5.92382661,90,90,119.9999924,hex_,P6_3/mmc,3.9999268,-13.24685952,-1.948003869,0,TRUE,3.393342945,0,FALSE,281.0166852,,
mp-567698,CsTiI3,10,Cs1 Ti1 I3,8.269419712,8.269491414,6.998565396,89.99713547,90.00471957,120.0791521,hex_,P6_3/mmc,4,-3.938046944,-1.264795148,0.009522494,FALSE,4.50268296,0,FALSE,414.1393996,"{'voigt': -297820.473, 'reuss': 38672.109, 'vrh': -129574.182}","{'voigt': -22041.507, 'reuss': 9.071, 'vrh': -11016.218}"
mp-1183977,CsTiO3,5,Cs1 Ti1 O3,4.106981,4.106981,4.106981,90,90,90,cubic,Pm-3m,0.9994985,-7.088216598,-2.360595768,0.349270555,FALSE,5.48379645,0,FALSE,69.2736516,,
mp-1080226,CsTlBr3,5,Cs1 Tl1 Br3,5.868631316,5.868631316,5.867295035,89.99558767,89.99558767,90.00080081,mono,Cm,0.0048509,-3.079430414,-1.443222246,0.012869426,FALSE,4.741479732,0,FALSE,202.0745303,,
mp-1112177,CsTlBr3,10,Cs1 Tl1 Br3,8.270435931,8.270435931,8.270435931,60,60,60,cubic,Fm-3m,0,-3.08005807,-1.443849902,0.01224177,FALSE,4.790548763,0.9985,FALSE,400.0094091,,
mp-1080231,CsTlCl3,5,Cs1 Tl1 Cl3,5.579830006,5.579950453,5.580080135,89.99304754,89.99737197,89.98461833,mono,Cm,0.0004426,-3.41700106,-1.653838817,0.026746926,FALSE,4.240290935,0,FALSE,173.7367636,,
mp-1112176,CsTlCl3,10,Cs1 Tl1 Cl3,7.89950887,7.89950887,7.89950887,60,60,60,cubic,Fm-3m,0,-3.443385905,-1.680223662,0.000362081,FALSE,4.226998589,1.2584,FALSE,348.5662028,,
mp-1395579,CsTlCl3,5,Cs1 Tl1 Cl3,5.579954267,5.579954267,5.579950212,89.98883282,89.98883282,89.99737164,tet,P4mm,0.0006552,-3.416918578,-1.653756335,0.026829408,FALSE,4.240292314,0,FALSE,173.7367071,,
mp-1078203,CsTlF3,10,Cs1 Tl1 F3,6.759902998,6.759902998,6.759902998,60,60,60,cubic,Fm-3m,0,-19.952638,-2.42274345,0,TRUE,5.994898167,2.1858,FALSE,218.4270369,,
mp-2695837,CsTlF3,5,Cs1 Tl1 F3,4.789688557,4.789688557,4.789688249,90.00414871,90.00414871,90.0041462,cubic,Pm-3m,0,-19.8892556,-2.359361046,0.063382404,FALSE,5.958492752,0,FALSE,109.8807951,,
mp-998234,CsTlF3,5,Cs1 Tl1 F3,4.782049794,4.782049794,4.78204949,90.08065736,90.08065736,90.08065486,trig,R3m,0.003745,-19.88781606,-2.357921506,0.064821944,FALSE,5.987110127,0,FALSE,109.3555835,,