mp_id,formula,sites,composition,a_edge (angstrom),b_edge (angstrom),c_edge (angstrom),alpha_ang (deg),beta_ang (deg),gamma_ang (deg),crystal_system,space_group,total_magnetisation (bohr),energy_per_atom (eV/atom),formation_energy (eV/atom),energy_above_hull (eV/atom),stable,density (g/cc),band_gap (eV),direct_bandgap,volume (cubic-angstrom),bulk_modulus (GPa),shear_modulus (GPa)
mp-22667,UFeS3,10,U1 Fe1 S3,5.658657168,5.658657168,8.491823,90,90,142.1056053,ortho,Cmcm,4.0000608,-7.676297755,-1.24099577,0.109560474,FALSE,7.756704764,0,FALSE,167.0102662,,
mp-1079562,UFeSe3,10,U1 Fe1 Se3,6.303600512,6.303600512,9.187065,90,90,144.1964531,ortho,Cmcm,1.3619756,-6.874062678,-0.824229547,0.2507419,FALSE,8.253847185,0,FALSE,213.558013,,
mp-1070301,UGa3Ni,5,U1 Ga3 Ni1,5.90200104,5.90200104,5.90200104,138.6879266,138.6879266,59.85102376,tet,I4mm,2.1925098,-5.505498388,-0.274331436,0.043698151,FALSE,9.471988332,0,FALSE,88.6880615,,
mp-31428,UGa3Ni,5,U1 Ga3 Ni1,5.993427063,5.993427063,5.993427063,140.3359628,140.3359628,57.34354069,tet,I-4m2,2.309489,-5.423347696,-0.192180744,0.125848843,FALSE,9.659550508,0,FALSE,86.96598077,,
mp-1187745,UHgO3,5,U1 Hg1 O3,4.289145,4.289145,4.289145,90,90,90,cubic,Pm-3m,0.0345561,-7.933140576,-2.644147564,0.245595888,FALSE,10.2405737,0,FALSE,78.90639189,,
mp-1187781,UIrO3,5,U1 Ir1 O3,4.009328,4.009328,4.009328,90,90,90,cubic,Pm-3m,2.7850749,-8.537287552,-1.542542111,1.34720134,FALSE,12.32207837,0,FALSE,64.44878895,,
mp-19912,UMnSe3,10,U1 Mn1 Se3,5.815400857,5.815400857,9.162616,90,90,140.7444265,ortho,Cmcm,9.9999995,-7.237256277,-1.04902433,0.059306192,FALSE,8.974237185,0,FALSE,196.0794104,,
mp-1189264,UNiS3,20,U1 Ni1 S3,5.945911,7.061006,8.328957,90,90,90,ortho,Pnma,4.9927674,-7.177297923,-1.279972845,0.021444309,FALSE,7.463364391,0,FALSE,349.6838739,,
mp-1188256,UNiSe3,20,U1 Ni1 Se3,6.255074,7.38731,8.8402,90,90,90,ortho,Pnma,6.7162732,-6.57128618,-1.059429955,0.034535965,FALSE,8.676527013,0,FALSE,408.4894707,,
mp-1216814,UOF3,5,U1 O1 F3,3.811975953,3.811975953,5.113238,90,90,119.9999992,trig,P3m1,0.9884988,-7.73244835,-3.337686766,0.505998199,FALSE,8.026299871,0,FALSE,64.34679905,,
mp-1187714,UPdO3,5,U1 Pd1 O3,4.210241,4.210241,4.210241,90,90,90,cubic,Pm-3m,0.0023045,-8.711690712,-2.448655745,0.441087706,FALSE,8.731912281,0.6282,FALSE,74.63127626,,
mp-21103,UPdSe3,20,U1 Pd1 Se3,6.45456131,8.0767433,8.69590661,90,90,90,ortho,Pnma,8.00609,-6.492053684,-1.100248433,0,TRUE,8.517519425,0,FALSE,453.333567,,
mp-28607,UReB3,10,U1 Re1 B3,5.059883059,5.059880972,5.10709883,90.00011131,90.00000027,120.000067,hex_,P6_3/mmc,0.0055166,-9.309563073,-0.554023167,0,TRUE,13.39353318,0,FALSE,113.2362246,"{'voigt': 386193719.765, 'reuss': -79578353.124, 'vrh': 153307683.321}","{'voigt': 134046220.159, 'reuss': -14561.284, 'vrh': 67015829.438}"
mp-1187779,UReO3,5,U1 Re1 O3,3.981263,3.981263,3.981263,90,90,90,cubic,Pm-3m,1.882063,-9.562426534,-1.845745087,1.064419665,FALSE,12.42635761,0,FALSE,63.10483032,,
mp-21217,URhS3,20,U1 Rh1 S3,6.083469,7.106131,8.451047,90,90,90,ortho,Pnma,7.9427332,-7.531425115,-1.317265798,0.048183152,FALSE,7.947382027,0,FALSE,365.3381504,,
mp-1105660,URuS3,20,U1 Ru1 S3,5.96715784,6.93488214,8.82829566,90,90,90,ortho,Pnma,8.0008063,-27.18336366,-1.289049823,0.003380141,FALSE,7.914221491,0,FALSE,365.3284376,,
mp-1068256,USi3Ir,5,U1 Si3 Ir1,5.728770592,5.728770592,5.728770592,137.2992147,137.2992147,61.97799715,tet,I4mm,2.7047761,-7.845220876,-0.56406122,0,TRUE,9.997823976,0,FALSE,85.4537301,,
mp-1187767,USiO3,5,U1 Si1 O3,3.795583,3.795583,3.795583,90,90,90,cubic,Pm-3m,3.5260294,-8.765367044,-2.453244833,0.778871114,FALSE,9.538915255,0,FALSE,54.68087789,,
mp-1187783,UTcO3,5,U1 Tc1 O3,3.967178,3.967178,3.967178,90,90,90,cubic,Pm-3m,1.3279553,-9.315465532,-2.016279138,0.892489728,FALSE,10.21329605,0,FALSE,62.43743605,,
mp-1187736,UTiO3,5,U1 Ti1 O3,3.922603,3.922603,3.922603,90,90,90,cubic,Pm-3m,3.2180254,-9.912026782,-3.105869774,0.307579282,FALSE,9.186176532,0,FALSE,60.35636392,,
mp-865322,UTlO3,5,U1 Tl1 O3,4.32518333,4.32517519,4.32544057,90,90,90,cubic,Pm-3m,1,-8.640130126,-2.938777098,0,TRUE,10.06399019,0.2736,TRUE,80.91677642,"{'voigt': 132.86, 'reuss': 132.86, 'vrh': 132.86}","{'voigt': 62.841, 'reuss': 55.833, 'vrh': 59.337}"
mp-1188711,UVS3,20,U1 V1 S3,6.086498,6.98295,8.968122,90,90,90,ortho,Pnma,19.9529741,-8.075900941,-1.517821984,0.059237994,FALSE,6.711945837,0,FALSE,381.1605313,,
mp-1188372,UVSe3,20,U1 V1 Se3,6.51063868,7.30833521,9.54962879,90,90,90,ortho,Pnma,20.0000002,-7.424289673,-1.25167957,0.00491691,FALSE,7.686750108,0,FALSE,454.3897677,,
mp-27769,V3AsC,10,V3 As1 C1,3.13948863,5.247661431,7.651175,90,90,107.4054864,ortho,Cmcm,5.00E-07,-8.744546,-0.514444753,0,TRUE,6.61991536,0,FALSE,120.281155,"{'voigt': 196.809, 'reuss': 183.749, 'vrh': 190.279}","{'voigt': 87.423, 'reuss': 65.675, 'vrh': 76.549}"
mp-1079224,V3AsN,10,V3 As1 N1,5.345999905,5.345999905,7.551416,90,90,146.1108701,ortho,Cmcm,0.0005849,-14.09066915,-0.869667385,0.028362014,FALSE,6.671925471,0,FALSE,120.3370663,,
mp-635460,V3AuN,5,V3 Au1 N1,4.879088,4.879088,4.879088,90,90,90,cubic,Pm-3m,5.7950885,-18.19197143,2.204516176,2.887722395,FALSE,5.201075706,0,FALSE,116.149128,"{'voigt': 51.353, 'reuss': 51.353, 'vrh': 51.353}","{'voigt': 11.681000000000001, 'reuss': -30.087, 'vrh': -9.203}"
mp-1078963,V3GaN,10,V3 Ga1 N1,5.275322741,5.275322679,7.82878079,89.98759937,90.01240143,147.2457864,ortho,Cmcm,0.0001417,-8.473873032,-0.750254637,0,TRUE,6.664861821,0,FALSE,117.8741588,,
mp-1079313,V3GeC,10,V3 Ge1 C1,3.06517977,5.200238961,7.8319491,90,90,107.1404652,ortho,Cmcm,1.00E-07,-8.69376434,-0.473082029,0,TRUE,6.611178355,0,FALSE,119.2939672,,
mp-1079695,V3GeN,10,V3 Ge1 N1,5.232297542,5.232297542,7.746992116,89.97949104,90.02050896,146.3264657,ortho,Cmcm,1.40E-06,-8.835094886,-0.792490124,0,TRUE,6.76307422,0,FALSE,117.5948304,,
mp-1080573,V3PC,10,V3 P1 C1,5.05642642,5.05642642,7.491438231,89.99845033,90.00154967,144.1214857,ortho,Cmcm,1.00E-07,-9.081261443,-0.702089997,0.005308297,FALSE,5.793095036,0,FALSE,112.253788,,
mp-1079048,V3PN,10,V3 P1 N1,5.074417908,5.074417908,7.35246321,89.99953437,90.00046563,144.3774737,ortho,Cmcm,0,-13.11869916,-1.038788323,0.017273955,FALSE,5.957414522,0,FALSE,110.2702744,,
mp-1100926,VAgO3,40,V1 Ag1 O3,5.327099324,14.88377276,9.376835014,55.47088678,91.97840402,86.88864761,tri,P-1,0.0007863,-7.031003266,-1.676857913,0.078098517,FALSE,4.506266913,1.7207,FALSE,609.6622395,,
mp-1178815,VAgO3,20,V1 Ag1 O3,7.305953608,7.305953608,5.802879397,74.50897405,74.50897405,85.38522191,mono,C2/c,0,-7.097400057,-1.743254704,0.011701726,FALSE,4.775744055,1.9488,FALSE,287.6306546,,
mp-559736,VAgO3,20,V1 Ag1 O3,9.169970889,9.169970889,8.00754944,75.7563749,75.7563749,22.45148104,mono,Cm,0,-7.109101783,-1.75495643,0,TRUE,5.518261983,1.6283,FALSE,248.9280852,,
mp-624691,VAgO3,20,V1 Ag1 O3,7.297702207,7.297702207,5.601956752,82.89048912,82.89048912,86.78467741,mono,C2/c,0.0004055,-7.085955794,-1.731810441,0.023145989,FALSE,4.679945601,1.9189,TRUE,293.5184521,,
mp-18946,VBO3,10,V1 B1 O3,5.522130316,5.522130651,5.52212972,49.5677236,49.56773593,49.56773785,trig,R-3c,4,-8.848075437,-2.726639266,0,TRUE,4.063605841,1.8747,FALSE,89.69635939,,
mp-1187744,VBiO3,5,V1 Bi1 O3,3.939753,3.939753,3.939753,90,90,90,cubic,Pm-3m,1.9179222,-7.377992122,-1.814427443,0.273710011,FALSE,8.361422176,0,FALSE,61.15148173,,
mp-756282,VBiO3,20,V1 Bi1 O3,5.413356636,5.635266441,7.829876237,90.00057967,90.39745547,89.99830294,ortho,Pnma,8.0000001,-7.641337985,-2.077773306,0.010364148,FALSE,8.562914067,1.2971,FALSE,238.8501631,,
mp-1016904,VCdO3,5,V1 Cd1 O3,3.840124,3.840124,3.840124,90,90,90,cubic,Pm-3m,0.0003964,-6.763391212,-1.785831357,0.285856829,FALSE,6.197507248,0,FALSE,56.62858954,,
mp-22649,VCdO3,20,V1 Cd1 O3,5.322234,5.403246,7.603059,90,90,90,ortho,Pnma,4.000129,-6.979068381,-2.001508526,0.070179661,FALSE,6.420601458,0.4299,FALSE,218.6437494,,
mp-556857,VCdO3,20,V1 Cd1 O3,3.58967774,5.26484532,14.28396924,90,90,90,ortho,Pnma,4.0000007,-7.049248041,-2.071688186,0,TRUE,5.200232904,0,FALSE,269.9541352,,
mp-22938,VCl3O,20,V1 Cl3 O1,4.96398277,9.37686286,11.53302141,90,90,90,ortho,Pnma,0,-5.536248269,-1.620752858,0.081426753,FALSE,2.144255205,2.8945,FALSE,536.8227691,,
mp-10057,VCoB3,10,V1 Co1 B3,2.96576088,2.992652716,8.823090284,99.76409259,90,90,ortho,Cmcm,1.00E-07,-7.861651258,-0.610551638,0,TRUE,6.123945772,0,FALSE,77.17491168,"{'voigt': 298.394, 'reuss': 294.593, 'vrh': 296.493}","{'voigt': 204.592, 'reuss': 202.089, 'vrh': 203.341}"
mp-1187746,VCoO3,5,V1 Co1 O3,3.776133,3.776133,3.776133,90,90,90,cubic,Pm-3m,2.0065078,-7.693387334,-1.481146173,0.541067191,FALSE,4.868720275,0,FALSE,53.84456179,,
mp-1206118,VCoO3,10,V1 Co1 O3,4.995186442,5.504188536,5.115817604,62.29730154,118.653366,116.2361038,tri,P-1,7.9999995,-8.212322635,-2.000081474,0.02213189,FALSE,5.000794881,0.1143,FALSE,104.844976,,
mp-1277045,VCoO3,10,V1 Co1 O3,5.060056487,5.526110773,4.989405187,63.35074915,118.8142623,118.4317208,tri,P1,5.9999998,-8.135140591,-1.92289943,0.099313934,FALSE,5.087313727,1.1514,FALSE,103.0619002,,
mp-1101715,VCrO3,20,V1 Cr1 O3,5.015817819,5.401852691,8.923493974,85.22156065,73.50997017,117.513827,tri,P-1,20,-9.157033004,-2.440865693,0.009702038,FALSE,5.038628711,1.6123,TRUE,198.9706381,,
mp-1216392,VCrO3,10,V1 Cr1 O3,5.02976825,5.398022947,5.030166205,62.22542168,119.9973277,90.00014995,trig,R3c,10.0000001,-9.159223562,-2.443056251,0.00751148,FALSE,5.027905257,1.6133,FALSE,99.6975001,,
mp-1337287,VCrO3,20,V1 Cr1 O3,5.109285,5.509690957,8.859794526,105.5920323,89.85997116,117.5843477,tri,P1,20.0000001,-7.893011195,-1.176843884,1.273723847,FALSE,4.757296302,0,FALSE,210.7371722,,
mp-1370790,VCrO3,20,V1 Cr1 O3,5.097243,5.499617884,8.861646509,105.5820137,89.94178381,117.6000687,tri,P1,0.4113618,-7.603256185,-0.887088874,1.563478857,FALSE,4.777894914,0,FALSE,209.8286354,,
mp-1373421,VCrO3,20,V1 Cr1 O3,5.126993,5.499044175,8.827918535,105.4559725,89.97797843,117.7208083,tri,P1,0.6371826,-7.601998721,-0.88583141,1.564736321,FALSE,4.771343256,0,FALSE,210.1167567,,
mp-1374293,VCrO3,20,V1 Cr1 O3,5.119956,5.494272902,8.876123915,105.6293761,89.96055967,117.5397577,tri,P-1,0.0183424,-7.801229788,-1.085062477,1.365505254,FALSE,4.752380211,0.2585,FALSE,210.9551688,,
mp-1375284,VCrO3,20,V1 Cr1 O3,5.118099,5.500426674,8.829189514,105.4956447,89.9393764,117.6570948,tri,P1,0.0551293,-7.518737944,-0.802570633,1.647997098,FALSE,4.775316746,0,FALSE,209.9419208,,
mp-1376270,VCrO3,20,V1 Cr1 O3,5.106262,5.4968947,8.847112486,105.5382953,90.01317262,117.661172,tri,P1,20.0000001,-7.866720797,-1.150553486,1.300014245,FALSE,4.782309999,0,FALSE,209.6349191,,
mp-753988,VCrO3,20,V1 Cr1 O3,5.03078224,5.401564805,7.365080515,83.90028352,89.90972671,89.83364971,tri,P1,19.9999992,-9.155518006,-2.439350695,0.011217036,FALSE,5.037750813,1.315,FALSE,199.0053115,,
mp-754036,VCrO3,20,V1 Cr1 O3,5.007635476,5.403755491,8.93680695,85.37969345,73.35687724,117.6100637,tri,P1,16.0036945,-9.155962027,-2.439794716,0.010773015,FALSE,5.044746263,1.3624,TRUE,198.7293547,,
mp-755281,VCrO3,20,V1 Cr1 O3,4.992448993,5.401119034,8.967664418,85.14506014,73.64565191,117.5818246,tri,P1,20,-9.154426213,-2.438258902,0.012308829,FALSE,5.038461706,0.0298,FALSE,198.9772332,,
mp-757023,VCrO3,20,V1 Cr1 O3,5.049218901,5.388211069,7.358600108,96.05204108,90.21383634,89.86897558,tri,P1,19.9999996,-9.153481431,-2.437314119,0.013253612,FALSE,5.035799753,1.3455,FALSE,199.0824137,,
mp-770778,VCrO3,20,V1 Cr1 O3,5.051755539,5.41107111,8.89314761,85.39857856,73.5095882,118.0314051,tri,P1,20,-9.153762243,-2.437594932,0.012972799,FALSE,5.035548351,1.3901,TRUE,199.092353,,
mp-770779,VCrO3,20,V1 Cr1 O3,5.018231746,5.405271683,8.915471721,85.1865183,73.6488652,117.5996469,tri,P1,20.0000003,-9.157353598,-2.441186287,0.009381444,FALSE,5.037764696,1.6807,FALSE,199.0047631,,
mp-770843,VCrO3,20,V1 Cr1 O3,5.028424472,5.408946731,7.357009563,96.06643301,90.07953017,89.94044254,tri,P1,19.9999993,-9.155547554,-2.439380242,0.011187489,FALSE,5.038425701,0,FALSE,198.9786551,,
mp-770849,VCrO3,20,V1 Cr1 O3,5.038280512,5.413247208,8.894540313,85.15339314,73.64880116,117.8738646,tri,P1,20.0000003,-9.155606201,-2.43943889,0.011128841,FALSE,5.03848354,1.4095,FALSE,198.9763709,,
mp-770855,VCrO3,20,V1 Cr1 O3,5.409658462,5.409658462,8.645320398,74.38234802,74.38234802,55.6428744,mono,C2,20.0000002,-9.15518871,-2.439021399,0.011546332,FALSE,5.0391801,1.4293,TRUE,198.9488666,,
mp-803450,VCrO3,20,V1 Cr1 O3,5.126993,5.499044175,8.827918535,105.4559725,89.97797843,117.7208083,tri,P1,13.5086943,-6.447741846,0.268425466,2.718993197,FALSE,4.771343256,0,FALSE,210.1167567,,
mp-806062,VCrO3,20,V1 Cr1 O3,5.118099,5.500426674,8.829189514,105.4956447,89.9393764,117.6570948,tri,P1,7.9192806,-6.546228473,0.169938839,2.62050657,FALSE,4.775316746,0,FALSE,209.9419208,,
mp-806072,VCrO3,20,V1 Cr1 O3,5.132856,5.493069529,8.838029634,105.4733244,90.01500136,117.7677285,tri,P1,5.7855204,-6.558937358,0.157229953,2.607797684,FALSE,4.768934491,0,FALSE,210.2228856,,
mp-807999,VCrO3,20,V1 Cr1 O3,5.097243,5.499617884,8.861646509,105.5820137,89.94178381,117.6000687,tri,P1,6.0000631,-6.533004731,0.18316258,2.633730311,FALSE,4.777894914,0,FALSE,209.8286354,,
mp-1105167,VCuO3,20,V1 Cu1 O3,6.347573034,6.347573034,6.347573034,109.4712206,109.4712206,109.4712206,cubic,Im-3,1.4192999,-7.342631388,-1.737232237,0.153366647,FALSE,5.481797718,0,FALSE,196.8798314,,
mp-2371810,VCuO3,5,V1 Cu1 O3,3.196335643,5.006966691,5.824767972,114.2743666,105.9582802,90.00423085,mono,Cm,0,-7.401737222,-1.796338071,0.094260812,FALSE,3.33023284,0.926,FALSE,81.01951593,,
mp-504580,VCuO3,10,V1 Cu1 O3,5.561753345,5.561753345,5.561752805,53.42632745,53.42632745,53.42632882,trig,R-3,0.0002714,-7.401524406,-1.796125255,0.094473628,FALSE,5.242412014,0.659,FALSE,102.9350047,,
mp-562987,VCuO3,5,V1 Cu1 O3,3.222381,5.010254467,5.532574663,111.1193469,105.3318435,89.10338146,tri,P1,0.0011222,-7.389398718,-1.783999567,0.106599316,FALSE,3.370874004,0.8024,FALSE,80.04269881,,
mp-755580,VGaO3,20,V1 Ga1 O3,5.135831,7.875593,5.139276,89.99956992,89.99982156,90.00066546,ortho,Pnma,8.000609,-7.700893133,-2.309716111,0.09205607,FALSE,5.389298103,1.6053,FALSE,207.8719693,,
mp-755199,VGeO3,20,V1 Ge1 O3,5.27290511,6.796618154,6.796816322,94.20703712,82.6823671,97.31846827,mono,C2/c,0.002165,-7.869839514,-2.159676126,0.07809277,FALSE,4.763920504,0.0143,FALSE,239.2271614,,
mp-1178874,VHO3,30,V1 H1 O3,5.045671401,8.772322,7.998294714,90,105.06245,90,mono,P2_1/m,0.0022959,-7.428777368,-1.964186263,0.022129907,FALSE,2.912898127,2.0714,FALSE,341.8594546,,
mp-1178894,VHO3,20,V1 H1 O3,3.673247,6.182545177,12.11118199,94.31013399,89.36462413,107.0795175,tri,P1,0.0005457,-7.386914308,-1.922323203,0.063992967,FALSE,2.532356877,0.0094,FALSE,262.1541416,,
mp-625246,VHO3,30,V1 H1 O3,8.570394,5.115848,8.290879816,80.62159446,90,90,mono,P2_1,0.0003626,-7.402357497,-1.937766393,0.048549777,FALSE,2.776501607,2.1444,FALSE,358.6534085,,
mp-625258,VHO3,30,V1 H1 O3,8.697049,5.045689,7.871836465,76.027698,90,90,mono,P2_1,0.0025332,-7.426041035,-1.961449931,0.024866239,FALSE,2.970626307,2.1433,FALSE,335.2160999,,
mp-625407,VHO3,30,V1 H1 O3,5.189992,8.185303493,8.627587549,89.65306874,87.94920092,82.22967386,tri,P1,0.0025027,-7.402155868,-1.937564763,0.048751407,FALSE,2.743890284,2.1077,FALSE,362.9160287,,
mp-627119,VHO3,20,V1 H1 O3,3.634134,6.175622328,12.14103132,93.53318591,90.02793286,106.4179583,tri,P1,0.0002705,-7.381677612,-1.917086507,0.069229663,FALSE,2.545223543,0.6363,FALSE,260.8288946,,
mp-627209,VHO3,20,V1 H1 O3,6.223946161,6.223946161,11.56316317,85.93012148,85.93012148,34.61632975,mono,Cm,0.9466735,-7.308086718,-1.843495613,0.142820557,FALSE,2.616185062,0,FALSE,253.7541602,,
mp-627684,VHO3,20,V1 H1 O3,3.717014,6.09373414,13.14990065,90.51937039,96.43338261,107.0691964,tri,P1,3.9999999,-7.153336496,-1.688745391,0.297570779,FALSE,2.348622948,0.3222,FALSE,282.6625891,,
mp-1016938,VHgO3,5,V1 Hg1 O3,3.864387,3.864387,3.864387,90,90,90,cubic,Pm-3m,0.8130226,-6.347981838,-1.500489614,0.291137883,FALSE,8.618806919,0,FALSE,57.70877259,,
mp-29188,VHgO3,10,V1 Hg1 O3,3.583442644,4.878733204,8.653536119,85.81277175,77.59814178,88.74475352,tri,P-1,0,-6.635623628,-1.788131404,0.003496093,FALSE,6.750589983,2.1756,FALSE,147.3591996,,
mp-972116,VIrO3,5,V1 Ir1 O3,3.927342,3.927342,3.927342,90,90,90,cubic,Pm-3m,1.9818317,-7.200050698,-0.646806045,1.244942714,FALSE,7.981411817,0,FALSE,60.57538264,,
mp-1246912,VMoN3,20,V1 Mo1 N3,7.759459112,5.316903748,10.93950166,136.1777023,119.7769645,73.21333554,tri,P-1,2.13E-05,-9.447640695,-0.458762812,0.300055215,FALSE,4.656998335,0,FALSE,269.4254659,,
mp-1205732,VNCl3,10,V1 N1 Cl3,7.301262544,7.301262544,5.920421,90,90,120.0000049,hex_,P6_3/mmc,10.0004155,-8.521921877,-0.186793258,1.032160641,FALSE,2.081495989,0,FALSE,273.3248581,,
mp-1178820,VNO3,20,V1 N1 O3,3.210251,6.014614,18.122809,90,90,90,ortho,Pbcm,7.9986438,-7.785383456,-1.33217009,0.387016588,FALSE,2.143923169,0,FALSE,349.9228188,,
mp-1189181,VNO3,20,V1 N1 O3,3.211532,6.092092,15.468759,90,90,90,ortho,Pbcm,7.9965887,-7.776691492,-1.323478126,0.395708552,FALSE,2.478833185,0,FALSE,302.6454717,,
mp-1189578,VNO3,20,V1 N1 O3,5.219632,12.524772,6.098239,90,90,90,ortho,Pbcm,16.1407549,-6.782894107,-0.32968074,1.389505937,FALSE,1.881773407,0.1755,TRUE,398.6705496,,
mp-1206033,VNiO3,10,V1 Ni1 O3,5.002699851,5.010852072,5.332540498,62.99660905,62.30062598,59.06659542,tri,P-1,5.9999998,-7.912232267,-1.970647114,0.030067912,FALSE,5.376829351,0,FALSE,97.36441447,,
mp-1273627,VNiO3,10,V1 Ni1 O3,5.051205469,5.498325531,5.040529529,118.0665669,119.5751949,62.62751991,trig,R3,6.0026218,-7.859973411,-1.918388258,0.082326768,FALSE,5.102324182,0.0372,FALSE,102.6026224,,
mp-556026,VOF3,20,V1 O1 F3,5.06642859,5.574411463,9.3150732,91.01902994,90,90,mono,P2_1/c,0,-6.667337564,-2.714076768,0,TRUE,3.129597025,3.6563,FALSE,263.0380207,,
mp-752787,VOF3,20,V1 O1 F3,12.453854,4.908887,4.975631748,85.54535392,90,90,mono,P2_1/c,0,-6.646201002,-2.692940206,0.021136562,FALSE,2.714475003,3.47,FALSE,303.2641694,,
mp-752824,VOF3,20,V1 O1 F3,5.334596,7.311551,8.575374,90,90,90,ortho,Pca2_1,0.0001274,-6.638061386,-2.684800591,0.029276178,FALSE,2.461176895,3.2589,FALSE,334.4753515,,
mp-753030,VOF3,20,V1 O1 F3,5.22677,5.857773,10.115719,90,90,90,ortho,P2_12_12_1,0,-6.646938646,-2.69367785,0.020398918,FALSE,2.657934435,3.3804,FALSE,309.7153173,,
mp-753525,VOF3,20,V1 O1 F3,5.35979,5.35979,9.21233,90,90,90,tet,P4_1,0,-6.64238605,-2.689125255,0.024951513,FALSE,3.110583853,3.2329,TRUE,264.6458176,,
mp-754919,VOF3,10,V1 O1 F3,5.31313,5.49012,5.594209676,60.23317829,90,90,mono,Pc,0,-6.645721616,-2.692460821,0.021615947,FALSE,2.905759359,3.033,FALSE,141.6502376,,
mp-756077,VOF3,20,V1 O1 F3,5.343035,5.561066082,9.634724895,88.77500877,87.73720758,88.66473128,tri,P1,0,-6.6409555,-2.687694704,0.026382064,FALSE,2.87918369,2.876,FALSE,285.9154176,,
mp-759725,VOF3,20,V1 O1 F3,4.914218,5.650224,10.071659,90,90,90,ortho,Pna2_1,0,-6.619517912,-2.666257116,0.047819652,FALSE,2.94364783,3.0935,FALSE,279.6540396,,
mp-759983,VOF3,20,V1 O1 F3,7.901217,5.297866,9.093245613,69.9931884,90,90,mono,P2_1/c,0.0002841,-6.622325325,-2.669064529,0.045012239,FALSE,2.30157985,3.495,FALSE,357.6686713,,
mp-760178,VOF3,20,V1 O1 F3,4.827354,4.602134,12.84037086,69.67144393,90,90,mono,P2_1/c,0,-6.616277464,-2.663016669,0.051060099,FALSE,3.07744068,2.8891,FALSE,267.4959789,,
mp-760313,VOF3,10,V1 O1 F3,5.647576167,5.647576167,4.968264349,88.46769489,88.46769489,63.01538688,mono,C2,9.20E-06,-6.571712244,-2.618451449,0.09562532,FALSE,2.916228131,2.2205,FALSE,141.1417369,,
mp-760338,VOF3,20,V1 O1 F3,4.855594,5.11303,11.794434,90,90,90,ortho,Pnc2,1.20E-06,-6.571033315,-2.61777252,0.096304249,FALSE,2.811312585,2.2258,FALSE,292.818028,,
mp-760367,VOF3,10,V1 O1 F3,7.065299913,7.065299913,4.650986901,71.51037298,71.51037298,39.12859484,mono,C2,0.0003803,-6.613691194,-2.660430399,0.05364637,FALSE,2.983345171,2.6463,FALSE,137.966437,,