mp_id,formula,sites,composition,a_edge (angstrom),b_edge (angstrom),c_edge (angstrom),alpha_ang (deg),beta_ang (deg),gamma_ang (deg),crystal_system,space_group,total_magnetisation (bohr),energy_per_atom (eV/atom),formation_energy (eV/atom),energy_above_hull (eV/atom),stable,density (g/cc),band_gap (eV),direct_bandgap,volume (cubic-angstrom),bulk_modulus (GPa),shear_modulus (GPa)
mp-1232152,PmMgSe3,20,Pm1 Mg1 Se3,8.552830981,12.059555,8.038909517,90,138.0384729,90,mono,C2/m,0.0011218,-4.788694884,-1.414945529,0.336197094,FALSE,4.866400606,0,FALSE,554.402414,,
mp-1232203,PmMgSe3,30,Pm1 Mg1 Se3,7.000498,7.000498773,19.625022,90,90,119.9999963,trig,R-3,3.2346265,-4.847646201,-1.473896847,0.277245777,FALSE,4.858760694,0,FALSE,832.9112339,,
mp-1237948,PmMgSe3,10,Pm1 Mg1 Se3,7.361748927,7.361748927,6.838448749,76.3288096,76.3288096,116.406067,mono,C2/m,0.0001753,-4.7539764,-1.380227046,0.370915577,FALSE,4.546946605,0,FALSE,296.6764817,,
mp-983513,PmRuO3,5,Pm1 Ru1 O3,3.963814,3.963814,3.963814,90,90,90,cubic,Pm-3m,0.6657485,-7.959914948,-2.186149372,0.38784893,FALSE,7.840745527,0,FALSE,62.27873774,,
mp-2647018,PmTiO3,5,Pm1 Ti1 O3,3.920102069,3.920489043,3.920162054,90.00944235,89.98357129,90.01410431,cubic,Pm-3m,4.83E-05,-8.958279804,-3.460296333,0.109473933,FALSE,6.638677206,0,FALSE,60.24785691,,
mp-1186669,PmWO3,5,Pm1 W1 O3,4.1273,4.1273,4.1273,90,90,90,cubic,Pm-3m,2.9679798,-8.78951494,-2.279003827,0.555546558,FALSE,8.900325826,0,FALSE,70.30692641,,
mp-10039,Pr3AlC,5,Pr3 Al1 C1,5.137283,5.137283,5.137283,90,90,90,cubic,Pm-3m,0.0084294,-5.609920974,-0.137789834,0.058784596,FALSE,5.654872106,0,FALSE,135.5815117,"{'voigt': 61.702, 'reuss': 61.702, 'vrh': 61.702}","{'voigt': 40.827, 'reuss': 40.77, 'vrh': 40.798}"
mp-1094072,Pr3AlN,5,Pr3 Al1 N1,5.0424066,5.0424066,5.0424066,90,90,90,cubic,Pm-3m,0.0035175,-21.66038659,-0.845842965,0,TRUE,6.005968977,0,FALSE,128.2075461,,
mp-20684,Pr3AlN,5,Pr3 Al1 N1,5.587362,5.587362,5.587362,90,90,90,cubic,Pm-3m,0.0062381,-19.79911779,1.015425827,1.861268792,FALSE,4.414446348,0,FALSE,174.4296982,,
mp-8368,Pr3GaC,5,Pr3 Ga1 C1,5.537393,5.537393,5.537393,90,90,90,cubic,Pm-3m,0.0005476,-4.103016892,1.225618286,1.499269545,FALSE,4.933520156,0,FALSE,169.7915379,"{'voigt': 36.668, 'reuss': 36.668, 'vrh': 36.668}","{'voigt': 19.693, 'reuss': 7.953, 'vrh': 13.823}"
mp-19749,Pr3InC,5,Pr3 In1 C1,5.831276,5.831276,5.831276,90,90,90,cubic,Pm-3m,0.0013576,-3.694238562,1.58061216,1.827949422,FALSE,4.602214126,0,FALSE,198.285425,,
mp-20990,Pr3InN,5,Pr3 In1 N1,5.07883424,5.07883424,5.07883424,90,90,90,cubic,Pm-3m,0.0010523,-24.9831971,-0.999355071,0,TRUE,6.991011548,0,FALSE,131.0062805,,
mp-21135,Pr3InO,5,Pr3 In1 O1,5.01386593,5.01386074,5.01386074,90,90,90,cubic,Pm-3m,8.90E-06,-5.929620028,-1.510910203,0,TRUE,7.292578793,0,FALSE,126.0425704,,
mp-20388,Pr3PbC,5,Pr3 Pb1 C1,5.930013,5.930013,5.930013,90,90,90,cubic,Pm-3m,0.024383,-3.896917308,1.56862808,1.887780893,FALSE,5.111781749,0,FALSE,208.5292284,,
mp-20543,Pr3SnC,5,Pr3 Sn1 C1,5.88102718,5.88102718,5.8810346,90,90,90,cubic,Pm-3m,0.6493709,-4.1027367,1.422193644,1.825235302,FALSE,4.518168243,0,FALSE,203.4042896,,
mp-1206822,Pr3SnN,5,Pr3 Sn1 N1,5.05045937,5.05046559,5.05046559,90,90,90,cubic,Pm-3m,3.63E-05,-6.330217394,-0.983364599,0,TRUE,7.159657733,0,FALSE,128.8230908,,
mp-7166,Pr3TlC,5,Pr3 Tl1 C1,5.871802,5.871802,5.871802,90,90,90,cubic,Pm-3m,2.80E-06,-3.595997522,1.601312875,1.810166216,FALSE,5.242219788,0,FALSE,202.4483342,,
mp-1219803,PrAl3Ag,5,Pr1 Al3 Ag1,4.305298048,4.305298048,6.325608988,70.13945489,70.13946475,90.03529006,tet,I4mm,0,-4.185117418,-0.410090093,0,TRUE,5.324966167,0,FALSE,102.8201302,,
mp-1069825,PrAl3Cu,5,Pr1 Al3 Cu1,6.097226883,6.097226883,6.097226883,139.33091,139.33091,58.87063967,tet,I4mm,0,-12.60127271,-0.511863236,0,TRUE,4.970010434,0,FALSE,95.35492455,,
mp-3466,PrAlO3,10,Pr1 Al1 O3,5.313161821,5.313161678,5.313160873,60.4327145,60.43271113,60.43272144,trig,R-3c,0,-8.332834387,-3.655848326,0,TRUE,6.694744447,4.1325,FALSE,107.0957811,,
mp-8218,PrAlO3,10,Pr1 Al1 O3,5.315935953,5.31593982,5.315951879,59.99999238,59.99991844,60.00005234,cubic,Pm-3m,0,-8.314810974,-3.637824913,0.018023413,FALSE,6.749640598,2.8792,FALSE,106.2247501,"{'voigt': 197.512, 'reuss': 197.512, 'vrh': 197.512}","{'voigt': 138.511, 'reuss': 134.33, 'vrh': 136.42}"
mp-861504,PrBO3,20,Pr1 B1 O3,5.07421834,5.77535461,8.16741715,90,90,90,ortho,Pnma,0,-8.710246638,-3.446497389,0,TRUE,5.542315603,4.6526,TRUE,239.3495105,,
mp-2976,PrBPd3,5,Pr1 B1 Pd3,4.397572,4.397572,4.397572,90,90,90,cubic,Pm-3m,3.83E-05,-5.939519366,-0.536617634,0.110912753,FALSE,9.196264244,0,FALSE,85.04305956,"{'voigt': 131.577, 'reuss': 131.577, 'vrh': 131.577}","{'voigt': 6.8469999999999995, 'reuss': -37.373, 'vrh': -15.263}"
mp-11596,PrBPt3,5,Pr1 B1 Pt3,4.03625293,4.03625293,5.10236568,90,90,90,tet,P4mm,0,-6.784278456,-0.846625818,0,TRUE,14.72214065,0,FALSE,83.12436244,,
mp-5200,PrBRh3,5,Pr1 B1 Rh3,4.24621053,4.24624226,4.24620336,90,90,90,cubic,Pm-3m,0.0179892,-7.381872872,-0.668315504,0,TRUE,9.986435175,0,FALSE,76.56090895,"{'voigt': 169.867, 'reuss': 169.867, 'vrh': 169.867}","{'voigt': 75.46, 'reuss': 71.375, 'vrh': 73.418}"
mp-862754,PrBS3,20,Pr1 B1 S3,7.66742708,6.02901654,8.97746712,90,90,90,ortho,Pna2_1,0,-6.328215389,-1.550227003,0,TRUE,3.967889557,2.4441,TRUE,415.0017737,"{'voigt': 53.701, 'reuss': 51.763, 'vrh': 52.732}","{'voigt': 25.183, 'reuss': 20.031, 'vrh': 22.607}"
mp-1186742,PrBeO3,5,Pr1 Be1 O3,3.680409,3.680409,3.680409,90,90,90,cubic,Pm-3m,0.9998085,-7.528997214,-2.853243746,0.252533759,FALSE,6.592440355,0,FALSE,49.85265037,,
mp-976727,PrBiO3,5,Pr1 Bi1 O3,4.448834,4.448834,4.448834,90,90,90,cubic,Pm-3m,0.0001415,-6.625798072,-1.919920315,0.765578477,FALSE,7.503595689,0,FALSE,88.051874,"{'voigt': 114.926, 'reuss': 114.926, 'vrh': 114.926}","{'voigt': 38.397, 'reuss': 8.345, 'vrh': 23.371}"
mp-13125,PrCoGe3,5,Pr1 Co1 Ge3,5.787387694,5.787387694,5.787387694,136.2953947,136.2953947,63.52397956,tet,I4mm,7.60E-06,-5.721135752,-0.561541403,0,TRUE,7.595181891,0,FALSE,91.3352983,,
mp-20090,PrCoO3,20,Pr1 Co1 O3,5.40230677,5.34896231,7.59490712,90,90,90,ortho,Pnma,2.00E-07,-7.851972208,-2.497417969,0,TRUE,7.50079971,0,FALSE,219.4680207,,
mp-20427,PrCoO3,5,Pr1 Co1 O3,3.818819,3.818819,3.818819,90,90,90,cubic,Pm-3m,1.7351992,-7.73563128,-2.381077041,0.116340928,FALSE,7.389781551,0,FALSE,55.69128311,,
mp-569153,PrCoSb3,40,Pr1 Co1 Sb3,6.212405,12.170227,12.855429,90,90,90,ortho,Pbcm,0.0016713,-24.59165137,-0.640224429,0.009924976,FALSE,7.723877867,0,FALSE,971.952438,,
mp-13007,PrCrGe3,10,Pr1 Cr1 Ge3,6.18380729,6.18380729,5.757806,90,90,119.9999924,hex_,P6_3/mmc,2.7388655,-17.61808289,-0.399436592,0.034544735,FALSE,7.155418656,0,FALSE,190.6775604,,
mp-1105822,PrCrO3,20,Pr1 Cr1 O3,5.46700644,5.52184358,7.7524912,90,90,90,ortho,Pnma,12.0000002,-8.980136609,-3.121656221,0,TRUE,6.837139434,2.0419,TRUE,234.0318509,,
mp-19353,PrCrO3,5,Pr1 Cr1 O3,3.886788,3.886788,3.886788,90,90,90,cubic,Pm-3m,3.00005,-8.86211335,-3.003632961,0.118023259,FALSE,6.812662167,1.847,FALSE,58.71817645,,
mp-1209589,PrCrSb3,20,Pr1 Cr1 Sb3,6.27080792,6.20440328,13.25433018,90,90,90,ortho,Pbcm,11.5365724,-24.90921991,-0.589970723,0.00904716,FALSE,7.18960409,0,FALSE,515.6812039,,
mp-861512,PrCrSe3,20,Pr1 Cr1 Se3,3.97378937,8.18812469,13.77453414,90,90,90,ortho,Pnma,11.9954115,-6.479408272,-1.4921576,0,TRUE,6.369317066,0,FALSE,448.1941782,,
mp-1186515,PrCuO3,5,Pr1 Cu1 O3,3.846484,3.846484,3.846484,90,90,90,cubic,Pm-3m,0.0016306,-7.060295566,-2.312583337,0.02469268,FALSE,7.366070384,0,FALSE,56.91042001,,
mp-1199144,PrErS3,40,Pr1 Er1 S3,3.96697321,11.0433063,21.5370807,78.58082629,90,90,mono,P2_1/m,0,-19.87069783,-2.383820075,0,TRUE,5.808271668,0.6393,TRUE,924.8304559,,
mp-1069147,PrFeGe3,5,Pr1 Fe1 Ge3,5.826913979,5.826913979,5.826913979,136.6352255,136.6352255,62.99978067,tet,I4mm,5.08E-05,-5.916397888,-0.489482641,0,TRUE,7.4760963,0,FALSE,92.10423563,,
mp-22341,PrFeO3,20,Pr1 Fe1 O3,5.49878697,5.63563068,7.82389895,90,90,90,ortho,Pnma,19.9690725,-8.378956726,-2.757081589,0,TRUE,6.705028764,1.0793,FALSE,242.4558416,,
mp-1200999,PrFeSb3,40,Pr1 Fe1 Sb3,6.183377,12.186885,12.888024,90,90,90,ortho,Pbcm,0.0479825,-5.731169979,-0.600670702,0.021099055,FALSE,7.687689864,0,FALSE,971.1912822,,
mp-1210142,PrFeSb3,60,Pr1 Fe1 Sb3,6.297982,12.837543,18.328004,90,90,90,ortho,Pbcm,0.1169034,-5.711458702,-0.580959424,0.040810333,FALSE,7.557765138,0,FALSE,1481.83039,,
mp-1219979,PrGa3Au,5,Pr1 Ga3 Au1,4.325099194,4.325097714,6.184387706,69.59754446,69.59753927,90.10098336,tet,I4mm,1.00E-07,-4.038639726,-0.607911421,0,TRUE,9.027664635,0,FALSE,100.62255,,
mp-1220010,PrGa3Ni,5,Pr1 Ga3 Ni1,4.15414065,4.15414065,6.007960431,69.77426435,69.77426435,90,tet,I-4m2,5.30E-06,-4.46204914,-0.530069899,0.046517406,FALSE,7.505143535,0,FALSE,90.44179291,,
mp-1219974,PrGa3Pd,5,Pr1 Ga3 Pd1,6.127424246,6.127424246,6.127424246,139.515171,139.515171,58.5901875,tet,I-4m2,0,-4.497758418,-0.685830151,0,TRUE,7.890177266,0,FALSE,96.07268576,,
mp-1219973,PrGa3Pt,5,Pr1 Ga3 Pt1,6.144710443,6.144710443,6.144710443,139.8260152,139.8260152,58.1175652,tet,I-4m2,0,-4.71320457,-0.723026001,0,TRUE,9.460611338,0,FALSE,95.68732132,,
mp-4535,PrGaO3,20,Pr1 Ga1 O3,5.508641,5.609537,7.837221,90,90,90,ortho,Pnma,0,-7.567501809,-3.03401171,0.029260601,FALSE,7.093367763,3.3909,FALSE,242.1773823,,
mp-9833,PrGaO3,5,Pr1 Ga1 O3,4.603177,4.603177,4.603177,90,90,90,cubic,Pm-3m,2.0011405,-6.122358972,-1.588868873,1.474403438,FALSE,4.403044173,0,FALSE,97.53781528,,
mp-13072,PrGe3Rh,5,Pr1 Ge3 Rh1,5.916428591,5.916428591,5.916428591,136.1819902,136.1819902,63.69910077,tet,I4mm,0,-5.906688374,-0.700915795,0,TRUE,7.82603097,0,FALSE,97.97123687,,
mp-1186747,PrHfO3,5,Pr1 Hf1 O3,4.125883,4.125883,4.125883,90,90,90,cubic,Pm-3m,0.0120956,-9.369105914,-3.449797213,0.22375294,FALSE,8.686255886,0,FALSE,70.23453716,,
mp-755462,PrHfO3,20,Pr1 Hf1 O3,5.759292,5.88939,8.156554,90,90,90,ortho,Pnma,0.3029218,-9.457590539,-3.538281838,0.135268315,FALSE,8.820581288,0,FALSE,276.6598445,,
mp-1211193,PrIn3Pt,40,Pr1 In3 Pt1,10.089444,10.089444,10.089444,90,90,90,cubic,Pm-3n,0.0039619,-4.394938903,-0.566113702,0.03360796,FALSE,8.800975742,0,FALSE,1027.073922,,
mp-1105130,PrInO3,20,Pr1 In1 O3,5.67275125,5.96435251,8.20708483,90,90,90,ortho,Pnma,0,-7.335978204,-2.85627256,0.005396318,FALSE,7.265107068,2.6336,TRUE,277.6808731,,
mp-21872,PrLuO3,20,Pr1 Lu1 O3,5.73312695,5.96712043,8.28217456,89.99996985,89.99996573,89.99996202,ortho,Pnma,0,-8.746118879,-3.913910494,0.012616476,FALSE,8.530176157,4.8757,TRUE,283.3353364,,
mp-1078537,PrLuS3,10,Pr1 Lu1 S3,6.577864898,6.577864898,9.49266203,90,90,145.6458729,ortho,Cmcm,0,-20.70885352,-2.391086762,0,TRUE,5.904416369,0.785,FALSE,231.7782857,,
mp-1206692,PrLuS3,10,Pr1 Lu1 S3,6.674728462,6.674728462,9.992751,90,90,146.9332487,ortho,Cmcm,0.000206,-20.55684673,-2.239079968,0.152006794,FALSE,5.633918482,0.7198,FALSE,242.9065149,,
mp-13326,PrLuSe3,10,Pr1 Lu1 Se3,4.0329571,6.851853697,9.9481706,90,90,107.1153746,ortho,Cmcm,0,-24.27343904,-2.189735595,0,TRUE,6.987287394,0.4935,FALSE,262.7259017,,
mp-1232298,PrMgS3,20,Pr1 Mg1 S3,8.157704607,11.448985,7.783897932,90,128.6292523,90,mono,C2/m,3.9999365,-5.281679007,-1.513474971,0.391016098,FALSE,3.057257539,0.1745,FALSE,567.9307151,,
mp-1232362,PrMgS3,30,Pr1 Mg1 S3,7.002782,7.002781905,17.281357,90,90,120.0000004,trig,R-3,3.1685823,-5.341493958,-1.573289923,0.331201146,FALSE,3.548697343,0,FALSE,733.9216166,,
mp-1237949,PrMgS3,10,Pr1 Mg1 S3,6.97442942,6.97442942,6.570926358,76.89383711,76.89383711,114.635453,mono,C2/m,0.0003965,-5.229823239,-1.461619204,0.442871865,FALSE,3.292510346,0,FALSE,263.675779,,
mp-1232136,PrMgSe3,10,Pr1 Mg1 Se3,7.376735641,7.376735641,6.885591592,76.46579677,76.46579677,115.8867134,mono,C2/m,9.89E-05,-4.748535748,-1.365800567,0.388387465,FALSE,4.413697458,0,FALSE,302.5538384,,
mp-1232200,PrMgSe3,30,Pr1 Mg1 Se3,7.100363,7.10036348,19.63625,90,90,120.0000024,trig,R-3,3.477518,-4.844908554,-1.462173372,0.292014659,FALSE,4.672789042,0,FALSE,857.334514,,
mp-22564,PrMnO3,20,Pr1 Mn1 O3,5.47926694,5.57528151,7.78248656,90,90,90,ortho,Pnma,15.9999997,-8.703889929,-2.943615976,0,TRUE,6.812606999,0.057,FALSE,237.7429456,,
mp-975913,PrNbO3,5,Pr1 Nb1 O3,4.086932,4.086932,4.086932,90,90,90,cubic,Pm-3m,0.0004079,-8.87407588,-2.925943977,0.342085202,FALSE,6.855145839,0,FALSE,68.26407903,"{'voigt': 187.182, 'reuss': 187.182, 'vrh': 187.182}","{'voigt': 53.48, 'reuss': 15.39, 'vrh': 34.435}"
mp-13073,PrNiGe3,10,Pr1 Ni1 Ge3,4.14413027,4.19133551,11.08945961,90,100.7690061,90,ortho,Cmmm,1.00E-07,-5.481115865,-0.592177524,0.000252171,FALSE,7.327874173,0,FALSE,189.2254147,,
mp-19170,PrNiO3,10,Pr1 Ni1 O3,5.325053074,5.325063373,5.325124142,61.61702793,61.6168865,61.62421106,trig,R-3c,1.9999319,-7.489484222,-2.405585992,0.001081603,FALSE,7.431405466,0,FALSE,110.6515394,,
mp-22280,PrNiO3,20,Pr1 Ni1 O3,5.37445976,5.42801121,7.63202038,90,90,90,ortho,Pnma,3.9996803,-7.490565825,-2.406667594,0,TRUE,7.386578894,0,FALSE,222.6460901,,
mp-570394,PrNiSb3,60,Pr1 Ni1 Sb3,6.25385066,12.82277019,18.3944112,90,90,90,ortho,Pbcm,3.00E-07,-5.326100304,-0.733577933,0,TRUE,7.630835534,0,FALSE,1475.078917,,
mp-1186471,PrPbO3,5,Pr1 Pb1 O3,4.537287,4.537287,4.537287,90,90,90,cubic,Pm-3m,1.0002077,-6.65096289,-1.980562581,0.585463062,FALSE,7.041604056,0,FALSE,93.40900642,,
mp-10708,PrRh3C,5,Pr1 Rh3 C1,4.22136644,4.22136644,4.22136644,90,90,90,cubic,Pm-3m,2.00E-07,-7.576472724,-0.353060612,0.022491175,FALSE,10.1903365,0,FALSE,75.22447397,"{'voigt': 183.945, 'reuss': 183.945, 'vrh': 183.945}","{'voigt': 66.456, 'reuss': 66.386, 'vrh': 66.421}"
mp-4789,PrRhO3,20,Pr1 Rh1 O3,5.40540234,5.82736449,7.84373387,90,90,90,ortho,Pnma,0,-7.872002894,-2.471270425,0,TRUE,7.844914415,0.6013,FALSE,247.0717314,"{'voigt': 179.391, 'reuss': 176.979, 'vrh': 178.185}","{'voigt': 66.939, 'reuss': 56.134, 'vrh': 61.536}"
mp-20186,PrRuO3,20,Pr1 Ru1 O3,5.380915,5.986599,7.852293,90,90,90,ortho,Pnma,3.9944489,-8.263661768,-2.480910365,0.075639104,FALSE,7.614442683,0,FALSE,252.9489011,,
mp-559756,PrScO3,20,Pr1 Sc1 O3,5.6176864,5.82086436,8.06007464,90,90,90,ortho,Pnma,0,-9.072905108,-3.878540393,0,TRUE,5.893649057,4.2605,TRUE,263.5627526,,
mp-1189962,PrScS3,20,Pr1 Sc1 S3,6.52742262,7.18798791,9.61925523,90,90,90,ortho,Pnma,0,-15.27644783,-2.294959637,0,TRUE,4.151048982,1.8377,TRUE,451.3261716,,
mp-1202224,PrSiAs3,40,Pr1 Si1 As3,6.023156,26.683435,5.952776,90,90,90,ortho,Pna2_1,0.0021115,-5.445190961,-0.598959544,0.030635547,FALSE,5.467427482,0,FALSE,956.7211797,,
mp-1200190,PrSiP3,40,Pr1 Si1 P3,5.7318266,5.89937356,25.49814329,90,90,90,ortho,Pna2_1,0,-5.972942117,-0.679500104,0,TRUE,4.035441187,0.2568,FALSE,862.1989674,,
mp-1198507,PrSn3Ru,40,Pr1 Sn3 Ru1,9.78305544,9.78299114,9.78287338,90.00015192,90.00010905,89.99988064,cubic,Pm-3n,2.70E-05,-5.698323391,-0.478605478,0,TRUE,8.486054847,0,FALSE,936.2947912,,
mp-1206304,PrTiGe3,10,Pr1 Ti1 Ge3,5.90503897,6.270529643,6.270528317,119.9993393,89.99999913,89.99999974,hex_,P6_3/mmc,5.00E-07,-17.5083919,-0.716862677,0,TRUE,6.717116842,0,FALSE,201.078043,,
mp-753948,PrTiO3,10,Pr1 Ti1 O3,5.53697762,5.53697762,5.536977442,61.66746208,61.66746208,61.66745346,trig,R-3c,1.9880035,-9.03430902,-3.527339722,0.05882948,FALSE,6.314912054,0,FALSE,124.5213121,,
mp-754696,PrTiO3,5,Pr1 Ti1 O3,3.943236,3.943236,3.943236,90,90,90,cubic,Pm-3m,0.0001911,-8.988493486,-3.481524188,0.104645014,FALSE,6.412430763,0,FALSE,61.31381092,"{'voigt': 187.179, 'reuss': 187.179, 'vrh': 187.179}","{'voigt': 72.213, 'reuss': 65.478, 'vrh': 68.846}"
mp-754046,PrTlO3,5,Pr1 Tl1 O3,4.645081,4.645081,4.645081,90,90,90,cubic,Pm-3m,1.9856338,-6.16928629,-1.767120972,0.647732866,FALSE,6.516001689,0,FALSE,100.2258792,,
mp-1201800,PrTmS3,40,Pr1 Tm1 S3,3.95716548,11.01907461,21.48260067,78.57751572,90,90,mono,P2_1/m,0,-20.11143266,-2.385432279,0,TRUE,5.874575919,0.6481,TRUE,918.1804137,,
mp-978084,PrVGe3,10,Pr1 V1 Ge3,6.23430393,6.23420814,5.77359175,90.00000051,90.00000219,119.9994303,hex_,P6_3/mmc,0.0001828,-6.05246193,-0.502769711,0.013583789,FALSE,7.002770391,0,FALSE,194.3338547,,
mp-1069346,PrVO3,5,Pr1 V1 O3,3.935905,3.935905,3.935905,90,90,90,cubic,Pm-3m,1.9992671,-8.735173972,-2.990521863,0.212041934,FALSE,6.532060517,0,FALSE,60.97247472,,
mp-1209329,PrVO3,20,Pr1 V1 O3,5.48384877,5.49925769,7.94591615,90,90,90,ortho,Pnma,8.0000009,-8.947215907,-3.202563798,0,TRUE,6.648298264,1.3016,TRUE,239.6257682,,
mp-1173419,PrVSb3,20,Pr1 V1 Sb3,9.40205,8.991986,7.689995,90,90,90,ortho,Pbcm,13.8525585,-24.09219472,0.030301137,0.694379732,FALSE,5.691945525,0,FALSE,650.1360314,,
mp-1173554,PrVSb3,20,Pr1 V1 Sb3,6.589296,7.931818,10.514568,90,90,90,ortho,Pbcm,9.7173869,-24.54103037,-0.418534511,0.245544084,FALSE,6.733824281,0,FALSE,549.5449124,,
mp-1209337,PrVSb3,20,Pr1 V1 Sb3,6.27206377,6.20187894,13.24995256,90,90,90,ortho,Pbcm,7.3152043,-24.78657445,-0.664078595,0,TRUE,7.179875237,0,FALSE,515.4043424,,
mp-20097,Pt3PbC,5,Pt3 Pb1 C1,4.348043,4.348043,4.348043,90,90,90,cubic,Pm-3m,0.0003071,-5.840397596,0.390544909,0.482602848,FALSE,16.25075409,0,FALSE,82.20183097,,
mp-975564,PuBO3,5,Pu1 B1 O3,3.562941,3.562941,3.562941,90,90,90,cubic,Pm-3m,4.96611,-9.517090566,-2.264849113,0.786705554,FALSE,11.11711942,0,FALSE,45.22992757,,
mp-1209736,PuCrO3,20,Pu1 Cr1 O3,5.472803,5.61466,7.816719,90,90,90,ortho,Pnma,8.0000001,-10.64966186,-2.802689263,0.082013571,FALSE,9.512672765,0,FALSE,240.1915793,,
mp-2647102,PuCuO3,5,Pu1 Cu1 O3,3.821683,3.823684,3.823684,90,90,90,cubic,Pm-3m,4.5503232,-8.737421646,-2.001217213,0.471741008,FALSE,10.56632702,0,FALSE,55.87514305,,
mp-1186662,PuGaO3,5,Pu1 Ga1 O3,3.873306,3.873306,3.873306,90,90,90,cubic,Pm-3m,4.9997973,-9.10515653,-2.583174226,0.268998241,FALSE,10.33659819,0,FALSE,58.10927082,,
mp-1186797,PuInO3,5,Pu1 In1 O3,4.148644,4.148644,4.148644,90,90,90,cubic,Pm-3m,5.0055607,-8.571502524,-2.103304676,0.657224697,FALSE,9.460821072,0,FALSE,71.40333676,,
mp-975596,PuIrO3,5,Pu1 Ir1 O3,4.134388,4.134388,4.134388,90,90,90,cubic,Pm-3m,0.0073069,-8.761225264,-1.077175329,1.396932768,FALSE,11.37768279,0,FALSE,70.66977268,,
mp-1186787,PuMgO3,5,Pu1 Mg1 O3,3.82791,3.82791,3.82791,90,90,90,cubic,Pm-3m,4,-8.940718498,-2.698261396,0.612902516,FALSE,9.364132025,0,FALSE,56.08996318,,
mp-1188081,PuNiO3,5,Pu1 Ni1 O3,3.777442,3.777442,3.777442,90,90,90,cubic,Pm-3m,6.0061753,-9.139632452,-2.067242017,0.515832347,FALSE,10.80391221,0,FALSE,53.900577,,
mp-1186799,PuPbO3,5,Pu1 Pb1 O3,4.358038,4.358038,4.358038,90,90,90,cubic,Pm-3m,3.9732305,-9.128231406,-2.469338893,0.214490286,FALSE,10.01495656,0,FALSE,82.77001584,,
mp-975588,PuPtO3,5,Pu1 Pt1 O3,4.054549,4.054549,4.054549,90,90,90,cubic,Pm-3m,5.1981661,-8.65410903,-1.523519267,0.861694935,FALSE,12.13455059,0,FALSE,66.65422144,"{'voigt': 259.1, 'reuss': 259.06, 'vrh': 259.08}","{'voigt': 39.904, 'reuss': 3.348, 'vrh': 21.626}"
mp-510492,PuRh3C,5,Pu1 Rh3 C1,4.18414713,4.20821912,4.18396986,90,90,90,cubic,Pm-3m,4.8796185,-9.328010456,-0.116106139,0.12076639,FALSE,12.72899053,0,FALSE,73.67053778,,
mp-19828,PuRu3C,5,Pu1 Ru3 C1,4.167104,4.167104,4.167104,90,90,90,cubic,Pm-3m,0.0877001,-10.02903199,0.328929129,0.328929129,FALSE,12.8330332,0,FALSE,72.36074313,,
mp-1186801,PuSbO3,5,Pu1 Sb1 O3,4.315703,4.315703,4.315703,90,90,90,cubic,Pm-3m,3.452202,-8.76589625,-2.023732903,0.656019842,FALSE,8.547538441,0,FALSE,80.38123022,,
mp-1186812,PuTiO3,5,Pu1 Ti1 O3,3.917506,3.917506,3.917506,90,90,90,cubic,Pm-3m,5.6479283,-10.71928681,-3.223825307,0.080421021,FALSE,9.386999278,0,FALSE,60.12138973,,
mp-2647162,PuTlO3,20,Pu1 Tl1 O3,6.131711,6.130994,8.657264,90,90,90,tet,P4/mbm,11.9998883,-8.909490806,-2.518833283,0,TRUE,10.13051318,0,FALSE,325.45671,,
mp-1219701,PuUC3,20,Pu1 U1 C3,7.020534629,7.020505766,7.020486837,109.4311128,109.4523797,109.5304483,cubic,I2_13,21.4709209,-10.73949643,0.003571364,0.070238071,FALSE,12.91837353,0,FALSE,266.3680668,,
mp-1209729,PuVO3,20,Pu1 V1 O3,5.440206,5.761251,7.769389,90,90,90,ortho,Pnma,28.000535,-10.62583983,-2.892695519,0.047993956,FALSE,9.3542257,0,FALSE,243.5112376,,