mp_id,formula,sites,composition,a_edge (angstrom),b_edge (angstrom),c_edge (angstrom),alpha_ang (deg),beta_ang (deg),gamma_ang (deg),crystal_system,space_group,total_magnetisation (bohr),energy_per_atom (eV/atom),formation_energy (eV/atom),energy_above_hull (eV/atom),stable,density (g/cc),band_gap (eV),direct_bandgap,volume (cubic-angstrom),bulk_modulus (GPa),shear_modulus (GPa)
mp-974757,KBeH3,20,K1 Be1 H3,5.497438,6.861258,9.044220097,74.1085332,90,90,mono,P2_1/c,8.00E-05,-3.208797448,-0.197541067,0.007877581,FALSE,1.035164853,3.0876,TRUE,328.1042856,,
mp-973396,KBeO3,5,K1 Be1 O3,3.771574,3.771574,3.771574,90,90,90,cubic,Pm-3m,2.9999698,-5.136239456,-1.193306335,0.635952091,FALSE,2.974704425,0,FALSE,53.64977434,"{'voigt': 92.168, 'reuss': 92.168, 'vrh': 92.168}","{'voigt': 33.846, 'reuss': 22.045, 'vrh': 27.945}"
mp-29799,KBiO3,60,K1 Bi1 O3,10.06653795,10.06653795,10.06653795,90,90,90,cubic,Pn-3,0,-5.545642486,-1.572585076,0,TRUE,5.783549581,0.4914,TRUE,1020.094499,,
mp-676536,KBiO3,90,K1 Bi1 O3,8.754482,8.990079569,22.17956562,97.23607675,96.20583412,109.9529972,tri,P1,0.0074692,-5.514770433,-1.541713024,0.030872052,FALSE,5.509511103,0.1862,TRUE,1606.24972,,
mp-863367,KBiO3,30,K1 Bi1 O3,8.640119551,8.640119551,10.03376254,55.82079292,55.82079292,71.9043772,mono,C2/m,0,-5.536190915,-1.563133505,0.009451571,FALSE,5.75444372,0.4906,TRUE,512.6270581,,
mp-982040,KBiO3,5,K1 Bi1 O3,4.284204,4.284204,4.284204,90,90,90,cubic,Pm-3m,0.0005425,-5.452773802,-1.479716392,0.092868684,FALSE,6.252348761,0,FALSE,78.63401066,"{'voigt': 86.685, 'reuss': 86.685, 'vrh': 86.685}","{'voigt': 70.215, 'reuss': 60.676, 'vrh': 65.445}"
mp-22958,KBrO3,5,K1 Br1 O3,4.394010315,4.394010476,4.394009926,85.10928319,85.1092845,85.109288,trig,R3m,0,-4.567074504,-1.044634649,0,TRUE,3.30290524,3.8569,TRUE,83.95967617,,
mp-1105868,KCO3,20,K1 C1 O3,10.319265,4.493736,7.776970041,63.69828552,90,90,mono,P2_1/c,4.0004309,-6.83990128,-1.799117634,0.011834445,FALSE,2.036152267,0.0964,TRUE,323.2987632,,
mp-1106094,KCO3,20,K1 C1 O3,5.786966,4.005711,15.32873122,80.49497619,90,90,mono,P2_1/c,4.0017107,-6.851735725,-1.810952079,0,TRUE,1.878370346,0.8756,FALSE,350.4556548,,
mp-31302,KCO3,40,K1 C1 O3,11.095666,7.305058,8.541060884,68.65409126,90,90,mono,P2_1/c,0.0027245,-6.77701406,-1.736230414,0.074721665,FALSE,2.041828477,4.1733,FALSE,644.8000085,,
mp-1211648,KCaBr3,20,K1 Ca1 Br3,7.58990711,8.05949747,10.97533155,90,90,90,ortho,Pnma,0,-3.87354901,-2.263987169,0.0054324,FALSE,3.154900025,4.5753,TRUE,671.3702189,,
mp-998599,KCaBr3,10,K1 Ca1 Br3,4.267215332,7.380736496,10.75417137,90.00076391,90.00054285,106.7969679,ortho,Cmcm,0,-3.87898141,-2.269419568,0,TRUE,3.26612366,4.4047,TRUE,324.2537853,,
mp-998749,KCaBr3,5,K1 Ca1 Br3,5.721591971,5.721591971,5.716306997,89.8982365,89.8982365,89.88657753,mono,Cm,2.10E-05,-3.824431044,-2.214869202,0.054550366,FALSE,2.829701269,3.8983,FALSE,187.1315837,,
mp-1211589,KCaCl3,5,K1 Ca1 Cl3,5.393523,5.393523,5.393523,90,90,90,cubic,Pm-3m,6.57E-05,-8.744588535,-2.441813669,0.045733154,FALSE,1.963622696,4.7635,FALSE,156.8980714,,
mp-1211643,KCaCl3,20,K1 Ca1 Cl3,7.20898851,7.59169634,10.45793088,90,90,90,ortho,Pnma,0,-8.79032169,-2.487546824,0,TRUE,2.153162021,5.5615,TRUE,572.3463649,,
mp-998421,KCaCl3,10,K1 Ca1 Cl3,7.234241455,7.234241885,8.027073376,63.21683877,63.21683933,60.00000336,trig,R-3,0,-8.772165423,-2.469390557,0.018156267,FALSE,1.983308023,5.616,FALSE,310.6815586,,
mp-998601,KCaCl3,5,K1 Ca1 Cl3,5.407372225,5.407372225,5.406517026,89.99604413,89.99604413,90.021713,mono,Cm,0.0002183,-8.744655511,-2.441880645,0.045666178,FALSE,1.948882136,4.7457,FALSE,158.0847853,,
mp-4950,KCaF3,5,K1 Ca1 F3,4.481726,4.481726,4.481726,90,90,90,cubic,Pm-3m,0,-5.471143296,-3.696861995,0.023864284,FALSE,2.511883222,6.1392,FALSE,90.01935658,"{'voigt': 48.658, 'reuss': 48.658, 'vrh': 48.658}","{'voigt': 27.947, 'reuss': 22.645, 'vrh': 25.296}"
mp-5926,KCaF3,20,K1 Ca1 F3,6.12777352,6.22062595,8.71579992,90,90,90,ortho,Pnma,0,-5.49500758,-3.720726279,0,TRUE,2.722395985,6.6502,FALSE,332.2339773,,
mp-643749,KCaF3,20,K1 Ca1 F3,8.874099,6.224743,6.272645949,89.60780972,90,90,mono,P2_1/m,0.0002878,-5.492980844,-3.718699542,0.002026737,FALSE,2.610411928,6.5991,TRUE,346.4864821,,
mp-1105914,KCaH3,20,K1 Ca1 H3,6.311777,6.322585,8.933021,90,90,90,ortho,Pnma,6.75E-05,-5.163588946,-0.479209978,0.036747629,FALSE,1.53157004,3.3257,TRUE,356.4878053,,
mp-1205722,KCaI3,10,K1 Ca1 I3,7.936552371,7.936552371,11.6910337,90,90,146.3266831,ortho,Cmcm,0,-3.334918369,-1.793116879,0.011525593,FALSE,3.740660486,3.6024,FALSE,408.3048075,,
mp-982885,KCaO3,5,K1 Ca1 O3,4.568674,4.568674,4.568674,90,90,90,cubic,Pm-3m,3,-5.06711209,-1.470941566,0.439582296,FALSE,2.214515002,0,FALSE,95.36093697,"{'voigt': 40.526, 'reuss': 40.526, 'vrh': 40.526}","{'voigt': 14.504, 'reuss': -7.407, 'vrh': 3.548}"
mp-23442,KCdCl3,20,K1 Cd1 Cl3,4.01365267,8.85064146,14.6107019,90,90,90,ortho,Pnma,0,-10.5851991,-1.669085436,0,TRUE,3.300056922,3.5095,FALSE,519.0218185,,
mp-10175,KCdF3,5,K1 Cd1 F3,4.38208902,4.38208902,4.38208902,90,90,90,cubic,Pm-3m,4.00E-07,-4.24200609,-2.676842727,0.025577015,FALSE,4.11453691,3.1006,FALSE,84.14795914,"{'voigt': 55.986, 'reuss': 55.986, 'vrh': 55.986}","{'voigt': 23.683, 'reuss': 18.559, 'vrh': 21.121}"
mp-9628,KCdF3,20,K1 Cd1 F3,6.18108562,6.08209058,8.64136873,90.00001605,90,90,ortho,Pnma,0,-4.267583105,-2.702419742,0,TRUE,4.263088623,3.3539,TRUE,324.8629474,,
mp-1211584,KCdN3,5,K1 Cd1 N3,4.567068,4.567068,4.567068,90,90,90,cubic,Pm-3m,5.5322476,-9.104037024,1.597863704,1.778230008,FALSE,3.373522521,0,FALSE,95.26040725,,
mp-1184992,KCdO3,5,K1 Cd1 O3,4.339857,4.339857,4.339857,90,90,90,cubic,Pm-3m,2.4844651,-4.111037796,-0.72398521,0.402591434,FALSE,4.05305097,0,FALSE,81.73842379,,
mp-23022,KClO3,10,K1 Cl1 O3,5.701289,4.751184,7.236104033,70.72898769,90,90,mono,P2_1/m,0.0003373,-4.713488817,-1.148730937,0.050930347,FALSE,2.199650261,5.4717,FALSE,185.0278073,"{'voigt': 16.68, 'reuss': 14.859, 'vrh': 15.769}","{'voigt': 8.892, 'reuss': 7.021, 'vrh': 7.956}"
mp-550506,KClO3,5,K1 Cl1 O3,4.529572447,4.529572447,4.529572644,80.01503014,80.01503014,80.01502564,trig,R3m,0,-4.702425806,-1.137667926,0.061993358,FALSE,2.28265343,5.0728,TRUE,89.14985941,,
mp-556084,KClO3,20,K1 Cl1 O3,4.736659,5.719557,13.665051,90,90,90,ortho,Pnma,0.0018361,-4.713512315,-1.148754435,0.050906849,FALSE,2.19874499,5.5725,FALSE,370.2079746,"{'voigt': 16.228, 'reuss': 15.233, 'vrh': 15.73}","{'voigt': 8.782, 'reuss': 7.712, 'vrh': 8.247}"
mp-1001793,KCoCl3,10,K1 Co1 Cl3,6.887999122,6.887999122,6.887999485,60.59571006,60.59571006,60.59570643,trig,R3c,6.0024189,-4.189181978,-1.427102693,0.087747533,FALSE,2.89848631,0,FALSE,234.1901017,,
mp-559946,KCoF3,5,K1 Co1 F3,4.105255,4.105255,4.105255,90,90,90,cubic,Pm-3m,3.0000145,-5.243563268,-2.443718599,0.159078602,FALSE,3.72079032,0,FALSE,69.18634946,,
mp-1184947,KCoO3,5,K1 Co1 O3,3.87397,3.87397,3.87397,90,90,90,cubic,Pm-3m,4.516772,-5.643307976,-1.021574084,0.289261468,FALSE,4.170820658,0,FALSE,58.13916093,,
mp-998397,KCrCl3,10,K1 Cr1 Cl3,7.001840011,7.001840011,7.001839672,60.36852347,60.36852347,60.36852729,trig,R3c,7.9978001,-9.520308605,-1.610524002,0.0198711,FALSE,2.679273311,0,FALSE,244.7522492,,
mp-998420,KCrCl3,5,K1 Cr1 Cl3,4.97792,4.97792,4.970616,90,90,90,tet,P4mm,4.0042189,-9.517487543,-1.60770294,0.022692162,FALSE,2.661997693,0,FALSE,123.1703113,,
mp-1180767,KCrF3,10,K1 Cr1 F3,5.84693191,5.84693191,5.84693191,118.271375,118.271375,93.02108626,tet,I4/mcm,7.9999995,-6.231186697,-2.927415878,0.002180737,FALSE,3.396139664,1.572,FALSE,144.8165308,,
mp-1180782,KCrF3,10,K1 Cr1 F3,5.847078734,5.847078734,5.847078734,118.3605277,118.6222171,92.63364787,ortho,Ibam,7.9999995,-6.231341195,-2.927570376,0.002026239,FALSE,3.405717548,0.1574,FALSE,144.4092639,,
mp-555036,KCrF3,5,K1 Cr1 F3,4.219636,4.219636,4.219636,90,90,90,cubic,Pm-3m,4.0030434,-6.146849666,-2.843078847,0.086517768,FALSE,3.273020452,0,FALSE,75.1320029,,
mp-556365,KCrF3,10,K1 Cr1 F3,6.021007494,6.021007494,5.796128692,59.26580277,59.26580277,90.95246281,mono,C2/m,7.9999997,-6.233367434,-2.929596615,0,TRUE,3.418906475,1.4898,FALSE,143.8521843,,
mp-560547,KCrF3,10,K1 Cr1 F3,5.914091052,5.914091052,5.914091052,121.0208247,121.0208247,88.24079061,tet,I4/m,7.9999997,-6.22976257,-2.925991751,0.003604864,FALSE,3.416883033,1.968,TRUE,143.937372,,
mp-566131,KCrF3,5,K1 Cr1 F3,4.09361,4.09361,4.600637,90,90,90,tet,P4/mmm,3.9989126,-6.206554186,-2.902783367,0.026813248,FALSE,3.189648219,0.7059,FALSE,77.09583165,,
mp-1076732,KCrO3,5,K1 Cr1 O3,3.864733,3.864733,3.864733,90,90,90,cubic,Pm-3m,1.0000208,-6.79726811,-1.671608068,0.390394812,FALSE,4.001240318,0,FALSE,57.72427493,,
mp-1023129,KCuCl3,5,K1 Cu1 Cl3,4.79805545,4.79804927,4.79805133,90,90,90,cubic,Pm-3m,0.5088569,-8.324836616,-1.26036129,0.030757297,FALSE,3.142008713,0,FALSE,110.45741,"{'voigt': 38.496, 'reuss': 38.496, 'vrh': 38.496}","{'voigt': 17.354, 'reuss': 17.246, 'vrh': 17.3}"
mp-27450,KCuCl3,20,K1 Cu1 Cl3,4.059829343,8.716180511,13.76344897,90,90,97.11185592,mono,P2_1/c,3.9999999,-8.355593913,-1.291118587,0,TRUE,2.87246797,0.2682,FALSE,483.2891413,,
mp-636978,KCuCl3,20,K1 Cu1 Cl3,14.372141,4.757822,9.830983692,89.24271194,90,90,mono,P2_1/c,4.0041687,-8.333649544,-1.269174218,0.021944369,FALSE,2.065254287,0.0684,FALSE,672.1848188,,
mp-1080828,KCuF3,10,K1 Cu1 F3,3.95252198,5.773328732,5.773328732,90.03031512,90,90,tet,P4/mbm,1.9988862,-4.545465727,-2.352463068,0.005410073,FALSE,4.024321524,0,FALSE,131.7427749,,
mp-3682,KCuF3,10,K1 Cu1 F3,5.754957273,5.754957273,5.754957273,119.8381527,119.8381527,90.28055705,tet,I4/mcm,0.0107941,-4.54848816,-2.355485501,0.00238764,FALSE,3.924213956,0,FALSE,135.1035623,,
mp-556045,KCuF3,10,K1 Cu1 F3,6.329695506,6.329695506,6.329695506,111.6967346,111.6967346,105.1064025,tet,I4/mcm,0.0063919,-4.417160947,-2.224158288,0.133714853,FALSE,2.727522643,0,FALSE,194.3797922,,
mp-5566,KCuF3,10,K1 Cu1 F3,5.650595204,5.647021428,5.647021828,90.13977443,119.8984754,119.8984763,cubic,Pm-3m,0.0093765,-4.548677252,-2.355674593,0.002198548,FALSE,4.153368004,0,FALSE,127.6494845,"{'voigt': 68.887, 'reuss': 68.887, 'vrh': 68.887}","{'voigt': 30.379, 'reuss': 30.321, 'vrh': 30.35}"
mp-669347,KCuF3,10,K1 Cu1 F3,5.680055154,5.680679711,5.68068068,92.48404255,118.5797755,118.5797774,tet,I4/mcm,0.000266,-4.5508758,-2.357873141,0,TRUE,4.008852462,0,FALSE,132.2511341,"{'voigt': 98.494, 'reuss': 59.203, 'vrh': 78.848}","{'voigt': 40.374, 'reuss': 27.29, 'vrh': 33.832}"
mp-1147650,KCuH3,10,K1 Cu1 H3,5.371480941,5.371480941,5.371480941,114.4223778,114.4223778,99.96693585,tet,I4/mcm,0,-5.515403713,-0.069324285,0.046504395,FALSE,3.001902574,0,FALSE,116.9032219,,
mp-1223513,KCuS3,5,K1 Cu1 S3,4.1767,3.438944,7.610688,90,90,90,ortho,Pmm2,0.0040505,-3.971876212,-0.442745193,0.343337803,FALSE,3.020431692,0,FALSE,109.3156407,,
mp-1211599,KDyBr3,20,K1 Dy1 Br3,7.64367,8.072648,11.057192,90,90,90,ortho,Pnma,3.9746176,-3.99424767,-1.862130698,0.145281407,FALSE,4.29625803,0,FALSE,682.2802435,,
mp-1206220,KDyI3,10,K1 Dy1 I3,8.236174972,8.236174972,11.668159,90,90,149.7190573,ortho,Cmcm,0.8551486,-3.513893937,-1.449537318,0.099411348,FALSE,4.845554626,0,FALSE,399.1086338,,
mp-1184954,KDyO3,5,K1 Dy1 O3,4.46864,4.46864,4.46864,90,90,90,cubic,Pm-3m,2.0000281,-6.408429308,-2.289703655,0.264965223,FALSE,4.644740793,0,FALSE,89.23312573,,
mp-973830,KErO3,5,K1 Er1 O3,4.426509,4.426509,4.426509,90,90,90,cubic,Pm-3m,2.0061636,-6.434016168,-2.325421858,0.255832053,FALSE,4.869744499,0,FALSE,86.73293735,"{'voigt': 65.414, 'reuss': 65.414, 'vrh': 65.414}","{'voigt': 20.08, 'reuss': -13.427, 'vrh': 3.327}"
mp-23348,KFeBr3,20,K1 Fe1 Br3,4.066261,9.526064,15.077003,90,90,90,ortho,Pnma,16.0014134,-4.173214274,-1.270768166,0.051609727,FALSE,3.806124839,0.0763,FALSE,584.0146847,,
mp-23538,KFeCl3,20,K1 Fe1 Cl3,3.890847,8.862346,14.296414,90,90,90,ortho,Pnma,16.0002734,-4.603981997,-1.574581814,0.031317028,FALSE,2.712300817,0.0477,FALSE,492.96941,,
mp-556891,KFeF3,5,K1 Fe1 F3,4.16531,4.16531,4.16531,90,90,90,cubic,Pm-3m,4.0001133,-5.572443112,-2.505277545,0.220190679,FALSE,3.491201958,0,FALSE,72.26732625,,
mp-1247740,KFeI3,20,K1 Fe1 I3,4.061135,9.790628,16.301125,90,90,90,ortho,Pnma,16.0172067,-3.57122864,-0.736542884,0.146414656,FALSE,4.874467314,0.1892,FALSE,648.1500425,,
mp-1097023,KFeO3,20,K1 Fe1 O3,5.089854,5.611265,13.329225,90,90,90,ortho,Pnma,11.9999611,-6.158917163,-1.269862373,0.162004669,FALSE,2.493999836,0.5258,TRUE,380.6895919,,
mp-1184987,KGdO3,5,K1 Gd1 O3,4.46096,4.46096,4.46096,90,90,90,cubic,Pm-3m,5.0031509,-8.327219786,-2.31694479,0.18361395,FALSE,4.570568612,0,FALSE,88.77383614,,
mp-998412,KGeBr3,5,K1 Ge1 Br3,5.605409015,5.605409015,5.59204652,89.0316345,89.0316345,89.23977012,mono,Cm,5.90E-06,-3.49500829,-1.361960853,0.025231168,FALSE,3.322678413,0.9083,TRUE,175.6405167,,
mp-998612,KGeBr3,10,K1 Ge1 Br3,5.981290952,7.42392971,8.486145859,90,114.5480546,90,mono,P2_1/m,0,-3.520239458,-1.387192021,0,TRUE,3.405234404,2.9026,FALSE,342.7646287,,
mp-998231,KGeCl3,5,K1 Ge1 Cl3,5.356161585,5.356161585,5.335108327,89.08382834,89.08382834,89.15415082,mono,Cm,3.00E-07,-3.88745914,-1.627457628,0.028222893,FALSE,2.367039892,1.4859,FALSE,153.000838,,
mp-998613,KGeCl3,10,K1 Ge1 Cl3,7.531836961,7.53183688,7.531836492,61.68388527,61.68387771,61.68388726,trig,R3c,0,-3.915682033,-1.655680521,0,TRUE,2.310196858,2.8924,TRUE,313.530932,,
mp-998227,KHfO3,5,K1 Hf1 O3,4.177954,4.177954,4.177954,90,90,90,cubic,Pm-3m,1.0001286,-8.12971787,-2.943229516,0.040906272,FALSE,6.047336442,0,FALSE,72.92743889,,
mp-7483,KHgF3,20,K1 Hg1 F3,6.40393385,6.41619267,9.04877947,90,90,90,cubic,Pm-3m,0,-3.63507531,-2.199979577,0,TRUE,5.300151194,0.6082,FALSE,371.8041543,"{'voigt': 50.671, 'reuss': 50.671, 'vrh': 50.671}","{'voigt': 15.636, 'reuss': 10.308, 'vrh': 12.972}"
mp-725939,KHgI3,20,K1 Hg1 I3,8.495221,9.296003,12.546216,90,90,90,ortho,Pna2_1,0.0024956,-2.194468867,-0.991852945,0.014913208,FALSE,4.159090573,1.7116,TRUE,990.7947502,,
mp-1184944,KHoO3,5,K1 Ho1 O3,4.448354,4.448354,4.448354,90,90,90,cubic,Pm-3m,2.0008854,-6.420753736,-2.306167295,0.260054367,FALSE,4.754423171,0,FALSE,88.02337642,,
mp-1080058,KIO3,10,K1 I1 O3,6.287628716,6.287629181,6.287629508,59.93186773,59.93186075,59.93187505,trig,R3c,0,-4.865071167,-1.365218097,0.0014049,FALSE,4.049680418,2.8548,TRUE,175.4987724,,
mp-1180816,KIO3,20,K1 I1 O3,7.851112932,7.851112932,9.076980192,54.80104569,54.80104569,70.47362089,mono,C2,0.0008417,-4.856070678,-1.356217607,0.01040539,FALSE,3.804640101,2.813,TRUE,373.6037697,,
mp-1200675,KIO3,40,K1 I1 O3,8.896428484,8.896428473,8.896427956,89.66984356,89.66985025,89.66984473,trig,R3,0,-4.865412281,-1.36555921,0.001063787,FALSE,4.037656091,2.8533,TRUE,704.0856636,,
mp-1223446,KIO3,5,K1 I1 O3,4.522157015,4.522157015,4.522156919,88.4851769,88.4851769,88.4851775,trig,R3,0.0001532,-4.86031302,-1.360459949,0.006163048,FALSE,3.846587597,2.5295,FALSE,92.38239401,,
mp-23487,KIO3,20,K1 I1 O3,7.67246903,7.690671943,7.680980049,109.5181294,109.0969225,109.3830158,tri,P1,0,-4.866476068,-1.366622997,0,TRUE,4.053475827,2.7868,TRUE,350.6688937,"{'voigt': 21.521, 'reuss': 20.541, 'vrh': 21.031}","{'voigt': 14.337, 'reuss': 13.883, 'vrh': 14.11}"
mp-552729,KIO3,5,K1 I1 O3,4.438137533,4.43813628,4.43886818,88.66743015,88.6674449,88.66447294,trig,R3m,0,-4.85970592,-1.359852849,0.006770148,FALSE,4.067605629,2.5682,TRUE,87.36269033,,
mp-558843,KIO3,5,K1 I1 O3,4.200263,4.200263,4.200263,90,90,90,cubic,Pm-3m,0.0008085,-4.6682329,-1.168379829,0.198243168,FALSE,4.795516453,0,FALSE,74.10191883,,
mp-1110931,KInBr3,10,K1 In1 Br3,8.070099526,8.070099526,8.070099526,60,60,60,cubic,Fm-3m,0,-3.181974705,-1.421698091,0.09779008,FALSE,3.517577974,0.8797,FALSE,371.6393352,,
mp-28529,KInBr3,20,K1 In1 Br3,8.60409982,8.604099958,10.87592584,90,90,119.9999986,trig,P-3,0,-3.279764786,-1.519488171,0,TRUE,3.749623312,2.3376,FALSE,697.2808898,,
mp-1112170,KInCl3,10,K1 In1 Cl3,7.809809136,7.809809136,7.809809136,60,60,60,cubic,Fm-3m,0.0005564,-3.610035066,-1.722804377,0.053826871,FALSE,2.56629032,1.5971,FALSE,336.8265082,,
mp-1112296,KInF3,10,K1 In1 F3,6.600529261,6.600529261,6.600529261,60,60,60,cubic,Fm-3m,0.0003782,-4.625288278,-2.700292204,0.075186752,FALSE,3.444753016,2.3697,FALSE,203.3392813,,
mp-1112169,KInI3,10,K1 In1 I3,8.720254372,8.720254372,8.720254372,60,60,60,cubic,Fm-3m,0.0009848,-2.742072924,-1.049556662,0.076682345,FALSE,3.78668971,0,FALSE,468.8916112,,
mp-974734,KInO3,5,K1 In1 O3,4.308433,4.308433,4.308433,90,90,90,cubic,Pm-3m,1.9997599,-5.021622034,-1.274736738,0.291637047,FALSE,4.192360055,0,FALSE,79.9756965,,
mp-639811,KIrO3,60,K1 Ir1 O3,9.48725516,9.48725516,9.48725516,90,90,90,cubic,Pn-3,1.22E-05,-6.472615707,-1.509878324,0,TRUE,6.517792454,0,FALSE,853.9289618,,
mp-1184939,KLiO3,5,K1 Li1 O3,4.048757,4.048757,4.048757,90,90,90,cubic,Pm-3m,4.0001613,-4.32660995,-0.749774829,0.498409371,FALSE,2.352800136,0,FALSE,66.36897885,,
mp-1184941,KLuO3,5,K1 Lu1 O3,4.375635,4.375635,4.375635,90,90,90,cubic,Pm-3m,2.0003458,-6.478484566,-2.379096528,0.235662399,FALSE,5.194363903,0,FALSE,83.77670256,,
mp-27865,KMgCl3,20,K1 Mg1 Cl3,6.9558722,6.99846994,9.91599163,90,90,90,ortho,Pnma,0,-3.911991746,-2.250501802,0.002808604,FALSE,2.335928214,4.4851,TRUE,482.7150587,"{'voigt': 31.059, 'reuss': 31.048, 'vrh': 31.053}","{'voigt': 15.829, 'reuss': 15.583, 'vrh': 15.706}"
mp-3448,KMgF3,5,K1 Mg1 F3,3.97846823,3.97846823,3.97846823,90,90,90,cubic,Pm-3m,0,-5.236904424,-3.537649096,0,TRUE,3.174844985,6.9537,FALSE,62.97202846,"{'voigt': 74.789, 'reuss': 74.789, 'vrh': 74.789}","{'voigt': 43.572, 'reuss': 43.562, 'vrh': 43.567}"
mp-1017580,KMgH3,5,K1 Mg1 H3,4.435872,4.435872,4.435872,90,90,90,cubic,Pm-3m,2.00E-05,-1.886475082,0.702992729,1.048648856,FALSE,1.263739336,0,FALSE,87.28447769,"{'voigt': 20.908, 'reuss': 20.908, 'vrh': 20.908}","{'voigt': 0.089, 'reuss': -37.59, 'vrh': -18.751}"
mp-23737,KMgH3,5,K1 Mg1 H3,3.988098,3.988098,3.988098,90,90,90,cubic,Pm-3m,0,-2.935123938,-0.345656127,0,TRUE,1.738989885,2.458,FALSE,63.43040221,,
mp-1184960,KMgO3,5,K1 Mg1 O3,4.127702,4.127702,4.127702,90,90,90,cubic,Pm-3m,3,-4.960399644,-1.439255093,0.36418468,FALSE,2.630359619,0,FALSE,70.32747215,,
mp-29636,KMnBr3,20,K1 Mn1 Br3,4.06261933,9.33159817,15.20534512,90,90,90,ortho,Pnma,19.9999993,-4.548343159,-1.507498235,0.001322063,FALSE,3.845650107,1.7869,FALSE,576.4457502,,
mp-23049,KMnCl3,20,K1 Mn1 Cl3,6.96865944,7.09603931,9.99008665,90,90,90,ortho,Pnma,20.0000018,-9.67291222,-1.841129159,0.011803123,FALSE,2.694400864,0,FALSE,494.0085993,,
mp-567530,KMnCl3,20,K1 Mn1 Cl3,3.86265975,8.80346841,14.36243149,90,90,90,ortho,Pnma,19.9999986,-9.684715343,-1.852932282,0,TRUE,2.725388904,0,FALSE,488.3916547,,
mp-1180746,KMnF3,10,K1 Mn1 F3,5.912211119,5.912211119,5.912211119,120.0406516,120.0406516,89.92960383,tet,I4/mcm,9.9999993,-6.221487153,-3.01592277,0.001604434,FALSE,3.434624556,1.7405,TRUE,146.038551,,
mp-1180807,KMnF3,20,K1 Mn1 F3,6.011605,6.022303,8.497305,90,90,90,ortho,Pnma,20.0070808,-6.221887712,-3.016323329,0.001203875,FALSE,3.260937951,3.3458,TRUE,307.633939,,
mp-1205353,KMnF3,10,K1 Mn1 F3,5.897455214,5.897455214,5.897455214,120.0521214,119.6335875,90.27278058,ortho,Imma,9.9999996,-6.223091587,-3.017527204,0,TRUE,3.4502457,2.4058,FALSE,145.3773549,,
mp-555123,KMnF3,5,K1 Mn1 F3,4.182679,4.182679,4.182679,90,90,90,cubic,Pm-3m,5.0000003,-6.221380177,-3.015815794,0.00171141,FALSE,3.427308377,2.6564,FALSE,73.1751477,,
mp-555359,KMnF3,10,K1 Mn1 F3,5.875932491,5.87593281,5.914206425,119.7864345,119.7864346,89.99948856,tet,I4/mcm,9.9999996,-6.222847013,-3.01728263,0.000244574,FALSE,3.451674921,2.0716,TRUE,145.317159,,
mp-558046,KMnF3,20,K1 Mn1 F3,5.89376972,5.92009253,8.33661285,90,90,90,ortho,Pnma,20.0000022,-6.222718584,-3.017154201,0.000373002,FALSE,3.448779991,2.7828,TRUE,290.8782786,,
mp-560382,KMnF3,20,K1 Mn1 F3,5.90810512,5.90810512,8.37649173,90,90,90,tet,P4/mbm,20.0000027,-6.222167011,-3.016602628,0.000924576,FALSE,3.430980025,2.6774,TRUE,292.3873586,,