mp_id,formula,sites,composition,a_edge (angstrom),b_edge (angstrom),c_edge (angstrom),alpha_ang (deg),beta_ang (deg),gamma_ang (deg),crystal_system,space_group,total_magnetisation (bohr),energy_per_atom (eV/atom),formation_energy (eV/atom),energy_above_hull (eV/atom),stable,density (g/cc),band_gap (eV),direct_bandgap,volume (cubic-angstrom),bulk_modulus (GPa),shear_modulus (GPa)
mp-19322,BaMoO3,5,Ba1 Mo1 O3,4.04839936,4.04839936,4.04839936,90,90,90,cubic,Pm-3m,3.40E-06,-8.038497708,-2.516796095,0,TRUE,7.039066313,0,FALSE,66.35139263,,
mp-569812,BaN3Cl,10,Ba1 N3 Cl1,4.54043195,5.627126613,7.862347387,101.6593174,90,90,mono,P2_1/m,0,-6.785447807,-1.02897884,0.087003805,FALSE,3.626036889,4.0787,FALSE,196.7348753,,
mp-3020,BaNbO3,5,Ba1 Nb1 O3,4.13357283,4.13357283,4.13357283,90,90,90,cubic,Pm-3m,8.00E-07,-8.55158716,-3.178754561,0,TRUE,6.541520966,0,FALSE,70.62797942,"{'voigt': 167.842, 'reuss': 167.842, 'vrh': 167.842}","{'voigt': 90.754, 'reuss': 87.959, 'vrh': 89.357}"
mp-35143,BaNbS3,10,Ba1 Nb1 S3,6.95265609,6.95265518,5.73582701,90,90,119.9999891,hex_,P6_3/mmc,3.00E-06,-6.633025909,-1.745954172,0.003093184,FALSE,4.514803366,0,FALSE,240.1199049,,
mp-754307,BaNdO3,10,Ba1 Nd1 O3,6.373497552,6.373497552,6.373497577,61.04280153,61.04280153,61.04279165,trig,R-3c,1.9999153,-7.300780508,-2.99457943,0.115870301,FALSE,5.841499663,0,FALSE,187.369423,,
mp-755877,BaNdO3,5,Ba1 Nd1 O3,4.556776,4.556776,4.556776,90,90,90,cubic,Pm-3m,0.9999457,-7.238127458,-2.93192638,0.178523351,FALSE,5.783890189,0,FALSE,94.61784246,,
mp-1096852,BaNiCl3,10,Ba1 Ni1 Cl3,6.942746513,6.942746513,5.490497,90,90,120.0000049,hex_,P6_3mc,1.9995761,-4.450619523,-1.801675203,0.290261046,FALSE,4.381536231,0,FALSE,229.1948669,,
mp-1120765,BaNiO3,5,Ba1 Ni1 O3,4.030684,4.030684,4.030684,90,90,90,cubic,Pm-3m,0.0269529,-6.204349126,-1.695750199,0.124272274,FALSE,6.187792965,0,FALSE,65.48415898,,
mp-19138,BaNiO3,10,Ba1 Ni1 O3,5.67658447,5.676584232,4.78201573,90,90,120.0000014,hex_,P6_3/mmc,0,-6.3286214,-1.820022473,0,TRUE,6.072761251,1.4692,FALSE,133.4491516,,
mp-19241,BaNiO3,10,Ba1 Ni1 O3,5.67753215,5.677530778,4.7833107,90,90,119.9999959,hex_,P6_3mc,0,-6.328540503,-1.819941576,8.09E-05,FALSE,6.069091485,1.5157,FALSE,133.5298436,,
mp-11879,BaNiSn3,5,Ba1 Ni1 Sn3,6.481813811,6.481813811,6.481813811,136.1742433,136.1742433,63.71106718,tet,I4mm,0,-4.42089505,-0.475329613,0,TRUE,7.115072162,0,FALSE,128.862686,"{'voigt': 46.969, 'reuss': 46.022, 'vrh': 46.496}","{'voigt': 31.848, 'reuss': 31.599, 'vrh': 31.724}"
mp-8558,BaNpO3,5,Ba1 Np1 O3,4.40770786,4.40768834,4.40770786,90,90,90,cubic,Pm-3m,3.0000002,-9.31906119,-3.376933663,0,TRUE,8.189541935,0,FALSE,85.63207796,,
mp-781625,BaOsO3,5,Ba1 Os1 O3,4.06423,4.06423,4.06423,90,90,90,cubic,Pm-3m,1.0745095,-7.637092358,-2.039047281,0.080434833,FALSE,9.289408159,0,FALSE,67.1328109,,
mp-11006,BaPS3,20,Ba1 P1 S3,7.83000695,6.805428907,11.99680662,56.64821983,90,90,mono,P2_1/c,0,-5.423391565,-1.473486131,0,TRUE,3.290003629,3.1164,TRUE,533.9879165,,
mp-11008,BaPSe3,20,Ba1 P1 Se3,7.109938964,8.00824586,10.44369604,90,90.94345991,90,mono,P2_1/c,0,-4.858490397,-1.294053818,0,TRUE,4.526466315,2.1651,FALSE,594.5640042,,
mp-8557,BaPaO3,5,Ba1 Pa1 O3,4.49381653,4.49385515,4.49383447,90,90,90,cubic,Pm-3m,1.0003132,-8.825384122,-3.563953095,0,TRUE,7.618469716,0,FALSE,90.75101234,"{'voigt': 109.369, 'reuss': 109.369, 'vrh': 109.369}","{'voigt': 45.463, 'reuss': 37.69, 'vrh': 41.577}"
mp-20461,BaPbO3,10,Ba1 Pb1 O3,6.150366446,6.150366446,6.131107946,60.23374128,60.23374128,89.75035477,mono,C2/m,0.0001139,-6.203899323,-2.108798318,5.18E-05,FALSE,7.877180851,0.1934,FALSE,165.4915487,,
mp-20991,BaPbO3,10,Ba1 Pb1 O3,6.038435832,6.038435663,6.103859859,119.6460645,119.6460625,89.99999957,tet,I4/mcm,1.00E-07,-6.203213393,-2.108112388,0.000737765,FALSE,8.196469151,0.0273,FALSE,159.0449295,,
mp-21280,BaPbO3,5,Ba1 Pb1 O3,4.362221,4.362221,4.362221,90,90,90,cubic,Pm-3m,0.0002,-6.176932494,-2.081831489,0.027018664,FALSE,7.852241509,0,FALSE,83.0085815,,
mp-22230,BaPbO3,10,Ba1 Pb1 O3,6.076817498,6.076817498,6.076817498,120.1797167,119.3208594,90.43465787,ortho,Imma,0,-6.203951158,-2.108850153,0,TRUE,8.185414705,0.1993,FALSE,159.2597205,,
mp-561598,BaPbO3,5,Ba1 Pb1 O3,4.670138,4.670138,4.670138,90,90,90,cubic,Pm-3m,2.96E-05,-5.108779098,-1.013678093,1.09517206,FALSE,6.399226751,0,FALSE,101.8565922,"{'voigt': 61.735, 'reuss': 61.735, 'vrh': 61.735}","{'voigt': 21.07, 'reuss': 14.328, 'vrh': 17.699}"
mp-1178510,BaPdO3,5,Ba1 Pd1 O3,4.128267,4.128267,4.128267,90,90,90,cubic,Pm-3m,0.2599993,-6.073839014,-1.685291061,0.028700658,FALSE,6.885721972,0,FALSE,70.35635538,,
mp-22705,BaPrO3,20,Ba1 Pr1 O3,6.410451,6.496936,9.107009,90,90,90,ortho,Pnma,4.0013552,-7.286583334,-2.974917452,0.107053415,FALSE,5.712994943,0,FALSE,379.2913508,,
mp-4783,BaPrO3,5,Ba1 Pr1 O3,4.590468,4.590468,4.590468,90,90,90,cubic,Pm-3m,0.9999795,-7.202808638,-2.891142755,0.190828111,FALSE,5.6002304,0,FALSE,96.73216163,,
mp-6909,BaPrO3,10,Ba1 Pr1 O3,6.453867262,6.453867262,6.453867262,120.2532187,119.9053724,89.8629755,ortho,Imma,2.0037388,-7.281422177,-2.969756294,0.112214572,FALSE,5.706750605,0,FALSE,189.8531861,,
mp-6910,BaPrO3,10,Ba1 Pr1 O3,6.409892022,6.409891918,6.409892022,60.85499792,60.85500082,60.85499792,trig,R-3c,2.0000121,-7.27548856,-2.963822677,0.118148189,FALSE,5.707910908,0,FALSE,189.8145927,,
mp-1183290,BaPtO3,5,Ba1 Pt1 O3,4.138181,4.138181,4.138181,90,90,90,cubic,Pm-3m,0.0006986,-6.279181574,-1.712383319,0.099315742,FALSE,8.913980136,0,FALSE,70.86445429,,
mp-1214788,BaPtO3,70,Ba1 Pt1 O3,5.865786269,5.865786269,34.996411,90,90,120.000003,hex_,P6_3/mmc,6.67E-05,-6.373782275,-1.80698402,0.004715041,FALSE,8.480501764,0.4159,FALSE,1042.813383,,
mp-505025,BaPuO3,20,Ba1 Pu1 O3,6.21830855,6.22055537,8.74807929,90,90,90,ortho,Pnma,15.9999996,-9.644219982,-3.344061895,0,TRUE,8.427161775,0,FALSE,338.387365,,
mp-7143,BaPuO3,5,Ba1 Pu1 O3,4.38110308,4.3811021,4.38110112,90,90,90,cubic,Pm-3m,4,-9.619879698,-3.319721611,0.024340284,FALSE,8.477842719,0,FALSE,84.09111734,"{'voigt': 118.683, 'reuss': 118.683, 'vrh': 118.683}","{'voigt': 57.141, 'reuss': 55.318, 'vrh': 56.229}"
mp-989637,BaReN3,20,Ba1 Re1 N3,7.989707039,7.989707039,6.143923285,81.54328598,81.54328598,91.19638265,mono,C2/c,0,-8.574175465,-0.697790989,0,TRUE,6.333724809,1.7855,FALSE,383.3553761,,
mp-1183298,BaReO3,5,Ba1 Re1 O3,4.064732,4.064732,4.064732,90,90,90,cubic,Pm-3m,0.0077775,-8.21331388,-2.371119448,0.136362165,FALSE,9.18649424,0,FALSE,67.15769002,,
mp-1016850,BaRhO3,5,Ba1 Rh1 O3,4.094455,4.094455,4.094455,90,90,90,cubic,Pm-3m,1.5496788,-6.73986299,-1.914429825,0.098336171,FALSE,6.97270075,0,FALSE,68.64174367,"{'voigt': 134.066, 'reuss': 134.066, 'vrh': 134.066}","{'voigt': 57.897, 'reuss': 50.105, 'vrh': 54.001}"
mp-7685,BaRhO3,20,Ba1 Rh1 O3,5.771510518,5.771510397,9.65416446,89.99994841,90.00004596,119.999956,hex_,P6_3/mmc,4.0182156,-6.822705436,-1.99727227,0.015493726,FALSE,6.874242274,0,FALSE,278.4995457,,
mp-1017591,BaRuO3,5,Ba1 Ru1 O3,4.063668,4.063668,4.063668,90,90,90,cubic,Pm-3m,2.0165364,-7.32890174,-2.121449641,0.068705431,FALSE,7.086963161,0,FALSE,67.10496546,,
mp-3597,BaRuO3,20,Ba1 Ru1 O3,5.781548756,5.781549011,9.63265614,90.00001575,89.99998765,119.9999587,hex_,P6_3/mmc,8.0185275,-7.397607172,-2.190155073,0,TRUE,6.821965991,0,FALSE,278.8465488,"{'voigt': -179661081.468, 'reuss': 1033.073, 'vrh': -89830024.198}","{'voigt': -107796435.041, 'reuss': 296.021, 'vrh': -53898069.51}"
mp-3598,BaRuO3,30,Ba1 Ru1 O3,5.798523923,5.798523923,14.252885,90,90,119.9999991,hex_,P6_3/mmc,7.3465312,-7.371691194,-2.164239095,0.025915977,FALSE,6.875396672,0,FALSE,415.0193283,,
mp-5773,BaRuO3,15,Ba1 Ru1 O3,7.93657385,7.937654844,7.9336013,42.71376996,43.0586862,42.71305534,trig,R-3m,2.0479731,-7.395671109,-2.18821901,0.001936062,FALSE,6.817437184,0,FALSE,209.2738394,,
mp-768307,BaSO3,10,Ba1 S1 O3,5.572643,4.716658,6.797828428,73.2134575,90,90,mono,P2_1/m,0.0003059,-6.779983659,-2.599740154,0.069425328,FALSE,4.220516074,4.4264,FALSE,171.0619808,,
mp-18291,BaSbTe3,40,Ba1 Sb1 Te3,4.68859283,17.3106177,18.2360371,90,90,90,ortho,P2_12_12_1,0,-4.136793027,-1.041214255,0,TRUE,5.761188872,0.6207,FALSE,1480.081231,,
mp-1183289,BaScO3,5,Ba1 Sc1 O3,4.219697,4.219697,4.219697,90,90,90,cubic,Pm-3m,0.9995877,-7.826176444,-3.207111032,0.026701069,FALSE,5.08936518,0,FALSE,75.13526133,,
mp-6989,BaSeO3,10,Ba1 Se1 O3,4.727316927,5.68404761,6.881633589,90,107.0762024,90,mono,P2_1/m,0,-6.369833006,-2.318079119,0,TRUE,4.965564886,3.8866,TRUE,176.7597079,,
mp-1070137,BaSi3Pd,5,Ba1 Si3 Pd1,4.43020383,4.43020383,6.001889522,111.6581145,111.6581145,90,tet,I4mm,0,-5.111159912,-0.436197744,0,TRUE,5.420660922,0,FALSE,100.4790068,,
mp-1069809,BaSi3Pt,5,Ba1 Si3 Pt1,5.949318944,5.949318944,5.949318944,136.2256639,136.2256639,63.63164767,tet,I4mm,0,-5.406229138,-0.553016668,0.002081449,FALSE,6.956361148,0,FALSE,99.46186617,,
mp-1016821,BaSiO3,5,Ba1 Si1 O3,3.836937,3.836937,3.836937,90,90,90,cubic,Pm-3m,0.0005857,-7.280380138,-2.842744941,0.561268265,FALSE,6.273519937,0.9473,FALSE,56.48771473,"{'voigt': 175.849, 'reuss': 175.849, 'vrh': 175.849}","{'voigt': 144.663, 'reuss': 98.273, 'vrh': 121.468}"
mp-12958,BaSiO3,15,Ba1 Si1 O3,7.479290826,7.479290826,7.479290994,44.14675396,44.14675396,44.1467475,trig,R-3m,0.0006018,-7.546947387,-3.10931219,0.294701016,FALSE,5.765227565,3.0454,FALSE,184.4038942,,
mp-18407,BaSiO3,30,Ba1 Si1 O3,5.518273594,5.518273594,13.280251,90,90,119.9999951,hex_,P6_3/mmc,0.0002028,-7.433081184,-2.995445987,0.408567219,FALSE,6.071180489,2.1249,TRUE,350.221976,,
mp-7339,BaSiO3,20,Ba1 Si1 O3,4.638022,5.691674,12.707909,90,90,90,ortho,P2_12_12_1,0.0003712,-7.819616552,-3.381981356,0.022031851,FALSE,4.225502484,4.5345,FALSE,335.4647699,"{'voigt': 58.494, 'reuss': 57.494, 'vrh': 57.994}","{'voigt': 31.934, 'reuss': 30.002, 'vrh': 30.968}"
mp-776076,BaSiO3,40,Ba1 Si1 O3,6.398849,7.928865,14.3541053,62.05222586,90,90,mono,P2_1/c,0.0004088,-7.802728539,-3.365093342,0.038919864,FALSE,4.40677707,4.9408,FALSE,643.3305774,,
mp-776084,BaSiO3,30,Ba1 Si1 O3,7.519856188,7.519856188,11.3869284,71.26487481,71.26487481,60.14571229,mono,C2/c,0,-7.841648403,-3.404013206,0,TRUE,4.100241203,4.6708,FALSE,518.5696943,,
mp-1068048,BaSn3Au,5,Ba1 Sn3 Au1,6.653871796,6.653871796,6.653871796,135.2071975,135.2071975,65.20843136,tet,I4mm,0,-3.946880616,-0.502566115,0,TRUE,7.955701719,0,FALSE,144.1073772,,
mp-11269,BaSn3Pd,5,Ba1 Sn3 Pd1,4.936751667,4.936751817,6.628744194,111.862131,111.8621282,90.00001054,tet,I4mm,0,-4.472409248,-0.646894785,0,TRUE,7.253140735,0,FALSE,137.3362561,"{'voigt': 55.013, 'reuss': 54.998, 'vrh': 55.006}","{'voigt': 23.57, 'reuss': 23.253, 'vrh': 23.411}"
mp-30433,BaSn3Pt,5,Ba1 Sn3 Pt1,4.933648963,4.933649025,6.608819911,111.9708301,111.9708375,89.9763585,tet,I4mm,0,-4.684949584,-0.681184819,0,TRUE,8.37535818,0,FALSE,136.5134726,"{'voigt': 60.954, 'reuss': 60.884, 'vrh': 60.919}","{'voigt': 26.842, 'reuss': 26.701, 'vrh': 26.771}"
mp-1178513,BaSnO3,10,Ba1 Sn1 O3,5.923234727,5.923234727,5.923234727,120.0054141,119.8550199,90.12095949,ortho,Imma,3.54E-05,-6.741308211,-2.586822249,0.000646023,FALSE,6.864126369,0.6651,TRUE,147.1016995,,
mp-3163,BaSnO3,5,Ba1 Sn1 O3,4.14346542,4.14346542,4.14346542,90,90,90,cubic,Pm-3m,0,-6.741954234,-2.587468272,0,TRUE,7.097114448,0.3724,FALSE,71.13628093,"{'voigt': 133.913, 'reuss': 133.913, 'vrh': 133.913}","{'voigt': 89.124, 'reuss': 89.059, 'vrh': 89.091}"
mp-1183370,BaSnS3,20,Ba1 Sn1 S3,3.96018971,8.60846534,14.69781739,90,90,90,ortho,Pnma,0,-5.062951831,-1.394226732,0.015674843,FALSE,4.669209108,0.8569,FALSE,501.0655834,,
mp-1214332,BaSrBi3,20,Ba1 Sr1 Bi3,6.84803675,7.01213743,15.74091666,90,90,90,ortho,Pnna,9.00E-07,-3.794816241,-0.738515049,0,TRUE,7.485919806,0,FALSE,755.8689771,,
mp-754678,BaTaO3,5,Ba1 Ta1 O3,4.130846,4.130846,4.130846,90,90,90,cubic,Pm-3m,0.0012411,-8.995048194,-3.269091094,0.032557649,FALSE,8.628535381,0,FALSE,70.48829628,"{'voigt': 177.458, 'reuss': 177.458, 'vrh': 177.458}","{'voigt': 96.778, 'reuss': 91.247, 'vrh': 94.012}"
mp-4001,BaTaS3,10,Ba1 Ta1 S3,6.94578854,6.945788839,5.70673887,90,90,119.9999935,hex_,P6_3/mmc,2.00E-07,-7.022248309,-1.782052072,0,TRUE,5.773115877,0,FALSE,238.4304914,,
mp-1078588,BaTaSe3,10,Ba1 Ta1 Se3,7.278414499,7.278414499,5.925888,90,90,120.0000045,hex_,P6_3/mmc,0.0004642,-6.417136059,-1.562408676,0.040600376,FALSE,6.781654101,0,FALSE,271.8677044,,
mp-1182811,BaTbO3,10,Ba1 Tb1 O3,10.6139007,8.700594201,6.17827138,133.5869581,148.2087823,35.9236669,tri,P-1,1.9999724,-7.389091397,-3.108947081,0.106176999,FALSE,6.483026653,0,FALSE,176.3501888,,
mp-20129,BaTbO3,20,Ba1 Tb1 O3,6.25741,6.323942,8.801637,90,90,90,ortho,Pnma,4.0015935,-7.404464976,-3.12432066,0.09080342,FALSE,6.565046224,0,FALSE,348.2939602,,
mp-2929,BaTbO3,5,Ba1 Tb1 O3,4.451637,4.451637,4.451637,90,90,90,cubic,Pm-3m,0.9997735,-7.374825732,-3.094681416,0.120442664,FALSE,6.479843396,0,FALSE,88.21841086,,
mp-2939,BaTbO3,10,Ba1 Tb1 O3,6.284362399,6.284362399,6.284362399,120.5798009,120.5798009,88.99865509,tet,I4/mcm,2.0056567,-7.397871111,-3.117726795,0.097397285,FALSE,6.573244496,0,FALSE,173.9297807,,
mp-548824,BaTbO3,10,Ba1 Tb1 O3,6.232303064,6.232303064,6.232303439,60.97275542,60.97275542,60.97275366,trig,R-3c,1.9982508,-7.402091136,-3.12194682,0.09317726,FALSE,6.535941395,0,FALSE,174.9224641,,
mp-5735,BaTbO3,10,Ba1 Tb1 O3,6.272804295,6.272804295,6.272804295,120.4119233,119.6225449,89.97151235,ortho,Imma,1.9952547,-7.403501586,-3.12335727,0.09176681,FALSE,6.552733426,0,FALSE,174.4742079,,
mp-555174,BaTcO3,30,Ba1 Tc1 O3,5.79887858,5.798878602,13.95118365,89.99995685,90.00004413,119.9999466,hex_,P6_3/mmc,2.0395058,-7.891064421,-2.466365041,0,TRUE,6.947932626,0,FALSE,406.2842188,,
mp-5431,BaTeO3,10,Ba1 Te1 O3,4.650439182,5.95910517,7.120932753,90,106.4470613,90,mono,P2_1/m,0,-6.338290204,-2.357057434,0,TRUE,5.491008348,2.7149,FALSE,189.2637879,"{'voigt': 44.353, 'reuss': 41.702, 'vrh': 43.028}","{'voigt': 22.835, 'reuss': 17.465, 'vrh': 20.15}"
mp-556021,BaTeO3,60,Ba1 Te1 O3,6.15247695,12.37206862,14.88472134,90,90,90,ortho,Pnma,7.00E-07,-6.328950654,-2.347717885,0.00933955,FALSE,5.503485899,3.2562,TRUE,1133.008124,,
mp-27499,BaTeS3,20,Ba1 Te1 S3,6.98612374,7.56500176,11.07567138,90,90,90,ortho,Pnma,0,-4.684428415,-1.188956507,0,TRUE,4.097770835,1.9088,FALSE,585.3496576,,
mp-1189614,BaThO3,20,Ba1 Th1 O3,6.3660955,6.4142298,9.00638526,90,90,90,ortho,Pnma,0,-8.610439182,-3.775095941,0,TRUE,7.537982411,4.047,TRUE,367.7631283,,
mp-8037,BaThO3,5,Ba1 Th1 O3,4.600115,4.600115,4.600115,90,90,90,cubic,Pm-3m,0,-8.527033092,-3.691689851,0.08340609,FALSE,7.119627088,3.2033,TRUE,97.34330038,"{'voigt': 110.875, 'reuss': 110.875, 'vrh': 110.875}","{'voigt': 52.758, 'reuss': 48.49, 'vrh': 50.624}"
mp-1076932,BaTiO3,5,Ba1 Ti1 O3,3.764401974,3.764401974,8.881493,90,90,90.214496,ortho,Amm2,0.0139247,-7.444891614,-2.51322162,0.979056358,FALSE,3.076721579,0,FALSE,125.8562883,,
mp-19990,BaTiO3,5,Ba1 Ti1 O3,4.112467,4.112467,5.035613,90,90,90,tet,P4/mmm,0.0770356,-6.616488108,-1.684818114,1.807459864,FALSE,4.546800709,0,FALSE,85.16422489,"{'voigt': 92.254, 'reuss': 92.212, 'vrh': 92.233}","{'voigt': 11.398, 'reuss': -10.425, 'vrh': 0.487}"
mp-2998,BaTiO3,10,Ba1 Ti1 O3,5.666408035,5.666407644,5.668373885,119.9885356,119.9885368,90.00000405,cubic,Pm-3m,0,-8.409168392,-3.477498398,0.01477958,FALSE,6.015663614,1.6663,FALSE,128.7388335,"{'voigt': 166.907, 'reuss': 166.907, 'vrh': 166.907}","{'voigt': 107.497, 'reuss': 105.25, 'vrh': 106.373}"
mp-5020,BaTiO3,5,Ba1 Ti1 O3,4.033806555,4.033805893,4.033806146,89.8363828,89.83636958,89.8363873,trig,R3m,0,-8.423906982,-3.492236988,4.10E-05,FALSE,5.899610404,2.5087,FALSE,65.63564907,,
mp-504715,BaTiO3,5,Ba1 Ti1 O3,4.649145,4.649145,4.649145,90,90,90,cubic,Pm-3m,0.3616125,-5.346455884,-0.41478589,3.077492088,FALSE,3.853397781,0,FALSE,100.4891735,"{'voigt': 54.646, 'reuss': 54.646, 'vrh': 54.646}","{'voigt': 4.816, 'reuss': 1.480999999999999, 'vrh': 3.148}"
mp-558125,BaTiO3,30,Ba1 Ti1 O3,5.752887433,5.752887433,14.01903216,90,90,119.7247726,ortho,C222_1,0,-8.422651142,-3.490981147,0.00129683,FALSE,5.766285732,2.0811,TRUE,402.919428,"{'voigt': 104.423, 'reuss': 100.654, 'vrh': 102.538}","{'voigt': 59.933, 'reuss': 47.33, 'vrh': 53.631}"
mp-5777,BaTiO3,5,Ba1 Ti1 O3,3.98333387,4.057342645,4.057342358,90.25451682,90,90,ortho,Amm2,0,-8.423947972,-3.492277978,0,TRUE,5.905237275,2.293,FALSE,65.57310742,"{'voigt': 107.356, 'reuss': 88.377, 'vrh': 97.867}","{'voigt': 66.471, 'reuss': 36.084, 'vrh': 51.278}"
mp-5933,BaTiO3,30,Ba1 Ti1 O3,5.745668326,5.745668382,13.99927295,89.99999183,89.99999815,120.0000582,hex_,P6_3/mmc,0,-8.42132853,-3.489658536,0.002619442,FALSE,5.804935525,1.7261,TRUE,400.2367535,,
mp-5986,BaTiO3,5,Ba1 Ti1 O3,3.99037921,3.99037921,4.10265539,90,90,90,tet,P4mm,0,-8.421991398,-3.490321404,0.001956574,FALSE,5.927475121,1.728,FALSE,65.32709969,,
mp-644497,BaTiO3,5,Ba1 Ti1 O3,5.555776618,5.555776618,3.78421,90,90,107.2641468,ortho,Amm2,0,-7.709675374,-2.77800538,0.714272598,FALSE,3.471516278,0.3567,TRUE,111.5434085,"{'voigt': 32.37, 'reuss': 12.355, 'vrh': 22.363}","{'voigt': 39.381, 'reuss': 8.33, 'vrh': 23.855}"
mp-995191,BaTiO3,5,Ba1 Ti1 O3,4.120883055,4.120883055,5.032511,90,90,90.40670806,ortho,Amm2,0.2176743,-6.61729243,-1.685622436,1.806655542,FALSE,4.531153196,0,FALSE,85.45832404,,
mp-7073,BaTiS3,10,Ba1 Ti1 S3,6.80284049,6.802839689,5.85429888,90,90,120.0000038,hex_,P6_3/mmc,2.00E-07,-6.390798784,-1.944889652,0.006230597,FALSE,3.98290712,0,FALSE,234.6313451,,
mp-1079893,BaTiSe3,10,Ba1 Ti1 Se3,7.108258999,7.108258999,6.05122586,90,90,120,hex_,P6_3/mmc,0.001179,-5.830655041,-1.770214763,0,TRUE,5.293796121,0,FALSE,264.7893308,,
mp-1227345,BaTl3Au,5,Ba1 Tl3 Au1,5.062475,5.062475,7.208156014,69.44153997,69.44153997,90,tet,I4mm,0.0002098,-2.787968186,-0.326513528,0.0137596,FALSE,9.811795858,0,FALSE,160.3444381,,
mp-1227390,BaTlIn3,5,Ba1 Tl1 In3,5.132796,5.132796,7.142914545,68.94321859,68.94321859,90,tet,I-4m2,0.0006191,-2.820562564,-0.306968907,0.012278903,FALSE,7.029838182,0,FALSE,162.0809181,,
mp-1183393,BaTlO3,5,Ba1 Tl1 O3,4.350242,4.350242,4.350242,90,90,90,cubic,Pm-3m,0.0001515,-5.525285378,-1.698419364,0.119237046,FALSE,7.860473805,0,FALSE,82.3266135,,
mp-1183394,BaTmO3,5,Ba1 Tm1 O3,4.374127,4.374127,4.374127,90,90,90,cubic,Pm-3m,0.9985694,-7.442776868,-3.193704981,0.072607664,FALSE,7.02904506,0,FALSE,83.69011508,,
mp-35730,BaUO3,20,Ba1 U1 O3,6.239579931,6.264552011,8.80358892,89.99981005,89.99955897,89.99814566,ortho,Pnma,0.0307809,-9.097313798,-3.486460205,0,TRUE,8.171612092,0,FALSE,344.1162066,,
mp-3601,BaUS3,20,Ba1 U1 S3,7.2908132,7.52588778,10.41371308,90,90,90,ortho,Pnma,7.9999999,-7.146524549,-2.021431819,0,TRUE,5.481486627,0,FALSE,571.398791,,
mp-1017465,BaVO3,5,Ba1 V1 O3,3.982485,3.982485,3.982485,90,90,90,cubic,Pm-3m,0.9983727,-7.959825548,-2.790472743,0.114915919,FALSE,6.211395267,0,FALSE,63.16295593,,
mp-19150,BaVO3,25,Ba1 V1 O3,5.77793,5.77792986,11.740997,90,90,120.0000008,trig,P-3m1,4.9995614,-7.999602808,-2.830250003,0.075138659,FALSE,5.778850647,0,FALSE,339.4533874,,
mp-3451,BaVS3,20,Ba1 V1 S3,6.809994142,9.003470373,8.973673506,80.16413058,67.87009544,67.60089509,ortho,Cmc2_1,4.0000022,-6.352549342,-1.668957399,0,TRUE,4.011724019,0,FALSE,470.9823034,"{'voigt': 45.608, 'reuss': 83.401, 'vrh': 64.505}","{'voigt': 19.033, 'reuss': -1.376, 'vrh': 8.829}"
mp-4227,BaVS3,10,Ba1 V1 S3,6.728639532,6.728250045,5.779390955,90.05318513,90.31876557,119.9933859,hex_,P6_3/mmc,1.9940705,-6.338342442,-1.6547505,0.0142069,FALSE,4.169128824,0,FALSE,226.6002202,"{'voigt': -13335418.188, 'reuss': 2684297.867, 'vrh': -5325560.16}","{'voigt': -841617.907, 'reuss': 202.714, 'vrh': -420707.596}"
mp-542818,BaVS3,20,Ba1 V1 S3,8.796108362,8.796108362,11.2768337,50.25078212,50.25078212,45.74183352,mono,Cm,0.0097659,-6.338272922,-1.654680979,0.01427642,FALSE,4.199591438,0,FALSE,449.9130563,,