mp_id,formula,sites,composition,a_edge (angstrom),b_edge (angstrom),c_edge (angstrom),alpha_ang (deg),beta_ang (deg),gamma_ang (deg),crystal_system,space_group,total_magnetisation (bohr),energy_per_atom (eV/atom),formation_energy (eV/atom),energy_above_hull (eV/atom),stable,density (g/cc),band_gap (eV),direct_bandgap,volume (cubic-angstrom),bulk_modulus (GPa),shear_modulus (GPa)
mp-1184349,FeRhO3,5,Fe1 Rh1 O3,3.898442,3.898442,3.898442,90,90,90,cubic,Pm-3m,5.1219675,-6.499841534,-0.364199115,1.037876189,FALSE,5.794535836,0,FALSE,59.24793686,,
mp-973648,FeRhO3,5,Fe1 Rh1 O3,3.770073,3.770073,3.770073,90,90,90,cubic,Pm-3m,7.7374428,-6.602590334,-0.466947915,0.935127389,FALSE,6.406821234,0,FALSE,53.58574569,,
mp-540655,FeSO3,30,Fe1 S1 O3,7.939677485,7.92967601,7.944167014,109.2221273,109.5318351,109.66899,trig,R-3,23.9999844,-7.138344803,-1.647892044,0.105119724,FALSE,3.517355212,2.7701,FALSE,384.9725637,,
mp-1199561,FeSiO3,40,Fe1 Si1 O3,9.226737,5.315424,9.58724085,76.91569322,90,90,mono,P2_1/c,31.9999979,-8.324950682,-2.577106231,0.015693276,FALSE,3.826685496,0.7031,TRUE,457.98958,,
mp-18269,FeSiO3,20,Fe1 Si1 O3,5.392017584,6.776812912,6.788578601,86.18256993,75.73327589,75.75190409,mono,C2/c,16.0009888,-8.322428204,-2.574583753,0.018215755,FALSE,3.760758103,1.4522,FALSE,233.009148,,
mp-21939,FeSiO3,80,Fe1 Si1 O3,5.362383,9.229569,18.705614,90,90,90,ortho,Pbca,64.0000023,-8.325332232,-2.577487781,0.015311727,FALSE,3.786144146,2.7758,FALSE,925.7872998,,
mp-561362,FeSiO3,20,Fe1 Si1 O3,5.367727314,6.84711151,6.847111913,80.82513351,73.39654773,73.39654754,mono,C2/c,16.0002897,-8.256560125,-2.508715674,0.084083834,FALSE,3.805390638,2.9807,FALSE,230.2762383,,
mp-650392,FeSiO3,90,Fe1 Si1 O3,6.753778,7.555640724,20.89641864,84.26484862,81.20590443,84.60398827,tri,P-1,72.0073603,-8.317575561,-2.56973111,0.023068398,FALSE,3.772973168,2.7187,TRUE,1045.146496,,
mp-1178212,FeSnO3,20,Fe1 Sn1 O3,5.337292043,9.084800173,5.472166757,74.37808331,68.38294472,90.25759005,tri,P-1,16.0231149,-7.323507478,-1.858812262,0,TRUE,6.264690592,0.862,FALSE,235.9626721,,
mp-1178214,FeSnO3,20,Fe1 Sn1 O3,5.439315,5.461441003,7.868700002,89.99699991,90.00083682,90.00018924,ortho,Pnma,1.05E-05,-7.288322944,-1.823627728,0.035184535,FALSE,6.323950878,0.9864,FALSE,233.7515203,,
mp-1207083,FeSnO3,5,Fe1 Sn1 O3,4.02578,4.02578,4.02578,90,90,90,cubic,Pm-3m,3.9993122,-6.546368164,-1.081672948,0.777139314,FALSE,5.664124969,0,FALSE,65.24543243,,
mp-1078259,GaBO3,10,Ga1 B1 O3,5.424855065,5.424855065,5.424854795,49.8960477,49.8960477,49.89606989,trig,R-3c,0,-7.440028688,-2.529754526,0.003771963,FALSE,4.967413209,3.8639,TRUE,85.9331529,,
mp-1184023,GaBO3,5,Ga1 B1 O3,3.364261,3.364261,3.364261,90,90,90,cubic,Pm-3m,0.0016908,-6.037222814,-1.126948652,1.406577837,FALSE,5.605211384,0,FALSE,38.07755405,,
mp-22979,GaBiO3,5,Ga1 Bi1 O3,3.85294926,3.85294926,3.85294926,90,90,90,cubic,Pm-3m,0,-6.090197468,-1.737794798,0.227707668,FALSE,9.484632098,1.2244,FALSE,57.19787171,,
mp-558285,GaBiO3,20,Ga1 Bi1 O3,5.15381992,5.43275855,9.93184812,90,90,90,ortho,Pcca,0,-6.31589949,-1.963496821,0.002005645,FALSE,7.80334192,1.8794,FALSE,278.0863766,,
mp-755568,GaBiO3,10,Ga1 Bi1 O3,5.641572338,5.641572338,5.641572614,59.33723539,59.33723539,59.33722595,trig,R3c,0.0001172,-6.266792588,-1.914389919,0.051112547,FALSE,8.676556158,3.0525,FALSE,125.0497916,,
mp-1096988,GaCuBr3,10,Ga1 Cu1 Br3,7.240611277,7.240611277,7.240611277,116.2860775,116.2860775,96.56286675,tet,I4/mcm,0.000214,-2.90044701,-0.49281855,0.497214014,FALSE,4.400587038,0,FALSE,281.4849547,,
mp-1224901,GaFe3As,5,Ga1 Fe3 As1,4.055707784,4.058539,4.867666,90,90,59.97689679,hex_,P-6m2,6.2857401,-6.726472362,-0.104815925,0.073832833,FALSE,7.472518294,0,FALSE,69.37238575,,
mp-1212637,GaFe3N,5,Ga1 Fe3 N1,3.728742,3.728742,3.728742,90,90,90,cubic,Pm-3m,4.8965579,-7.579779386,-0.224491906,0.037878277,FALSE,8.04810387,0,FALSE,51.84262742,,
mp-1184032,GaFeO3,5,Ga1 Fe1 O3,3.784658,3.784658,3.784658,90,90,90,cubic,Pm-3m,4.9978076,-6.315184128,-1.046784079,0.941259932,FALSE,5.316604209,0,FALSE,54.21006425,,
mp-1184033,GaFeO3,5,Ga1 Fe1 O3,3.811283,3.811283,3.811283,90,90,90,cubic,Pm-3m,3.9359016,-6.285739848,-1.017339799,0.970704212,FALSE,5.205957994,0,FALSE,55.36223229,,
mp-649086,GaFeO3,40,Ga1 Fe1 O3,5.167031,8.863432,9.535878,90,90,90,ortho,Pna2_1,40.004998,-7.220654854,-1.952254804,0.035789207,FALSE,5.279594518,0.1724,FALSE,436.7205924,,
mp-861324,GaFeO3,40,Ga1 Fe1 O3,5.164322,8.853184748,9.527997232,89.90989574,89.90724307,89.91497385,tri,P1,40.0073042,-2.575484098,2.692915952,4.680959962,FALSE,5.292871616,0,FALSE,435.6250847,,
mp-868005,GaFeO3,40,Ga1 Fe1 O3,5.164622,8.859773215,9.531697297,89.96400447,89.88732827,89.93213573,tri,P1,40.0047923,-7.219775519,-1.951375469,0.036668542,FALSE,5.286571145,2.1227,FALSE,436.1442573,,
mp-1183980,GaGeO3,5,Ga1 Ge1 O3,3.754048,3.754048,3.754048,90,90,90,cubic,Pm-3m,0.0051482,-5.900624318,-1.401622939,0.703370443,FALSE,5.974864593,0,FALSE,52.90533441,,
mp-1246681,GaMoN3,20,Ga1 Mo1 N3,12.50312458,5.885700074,9.48343573,123.1159416,108.056985,117.0923301,tri,P-1,0.0007173,-7.955962789,-0.178246916,0.306489437,FALSE,4.003383937,1.0894,FALSE,344.5743965,,
mp-1224813,GaNi3As,5,Ga1 Ni3 As1,3.954186305,3.954186305,4.881622,90,90,119.9974619,hex_,P-6m2,0.0010224,-12.68753802,-0.268446333,0.068055637,FALSE,8.056779894,0,FALSE,66.10284345,,
mp-1206991,GaNi3C,5,Ga1 Ni3 C1,3.775591,3.775591,3.775591,90,90,90,cubic,Pm-3m,0.002119,-5.994449438,-0.075015127,0.157710058,FALSE,7.954274962,0,FALSE,53.82137969,,
mp-1224811,GaNi3Sb,5,Ga1 Ni3 Sb1,4.128723013,4.128723013,4.964123,90,90,119.9922283,hex_,P-6m2,0.0008947,-14.7551097,-0.136261065,0.165025191,FALSE,8.328033326,0,FALSE,73.28897822,,
mp-1183983,GaNiO3,5,Ga1 Ni1 O3,3.671321,3.671321,3.671321,90,90,90,cubic,Pm-3m,0.8019234,-5.381211794,-0.650788651,1.000703324,FALSE,5.919929658,0,FALSE,49.48425947,,
mp-1017563,GaPt3C,5,Ga1 Pt3 C1,4.206392,4.206392,4.206392,90,90,90,cubic,Pm-3m,0.0014611,-5.745444486,0.348587809,0.703917763,FALSE,14.88114649,0,FALSE,74.42677971,"{'voigt': 192.195, 'reuss': 192.195, 'vrh': 192.195}","{'voigt': -4.462, 'reuss': -129.978, 'vrh': -67.22}"
mp-1184206,GaSiO3,5,Ga1 Si1 O3,3.576533,3.576533,3.576533,90,90,90,cubic,Pm-3m,0.0074265,-6.705735318,-2.046275905,0.673755125,FALSE,5.292244115,0,FALSE,45.74953768,,
mp-1184243,GaSnO3,5,Ga1 Sn1 O3,3.872114,3.872114,3.872114,90,90,90,cubic,Pm-3m,0.0007614,-5.893821714,-1.517511535,0.575774915,FALSE,6.762534269,0,FALSE,58.05563839,,
mp-1184220,GaTeO3,5,Ga1 Te1 O3,3.887148,3.887148,3.887148,90,90,90,cubic,Pm-3m,0.0005189,-5.39680263,-1.193745644,0.613529692,FALSE,6.935710366,0,FALSE,58.73449365,,
mp-580539,Gd3AlC,5,Gd3 Al1 C1,4.94053157,4.93884406,4.94179571,90,90,90,cubic,Pm-3m,21.311725,-11.38146493,-0.340943325,0,TRUE,7.033428752,0,FALSE,120.5823603,,
mp-1069273,Gd3AlN,5,Gd3 Al1 N1,5.482043,5.482043,5.482043,90,90,90,cubic,Pm-3m,21.9083014,-28.19405655,1.016316431,1.916497476,FALSE,5.16794034,0,FALSE,164.7507169,,
mp-1207153,Gd3GaC,5,Gd3 Ga1 C1,4.90815985,4.90811674,4.90818275,90,90,90,cubic,Pm-3m,21.2922676,-11.30183098,-0.404805335,0.001032059,FALSE,7.773196131,0,FALSE,118.2372464,,
mp-20501,Gd3InC,5,Gd3 In1 C1,5.660396,5.660396,5.660396,90,90,90,cubic,Pm-3m,21.1906251,-9.298198006,1.545043185,1.888670382,FALSE,5.480622761,0,FALSE,181.359557,,
mp-637378,Gd3InN,5,Gd3 In1 N1,4.87670412,4.87457709,4.877545244,90.01681822,90.03453621,89.95861864,cubic,Pm-3m,21.888467,-33.47216571,-1.092494318,0,TRUE,8.601054209,0,FALSE,115.948316,,
mp-19958,Gd3PbC,5,Gd3 Pb1 C1,5.788733,5.788733,5.788733,90,90,90,cubic,Pm-3m,21.6121884,-9.50724281,1.526693047,1.930529828,FALSE,5.914961038,0,FALSE,193.9771418,,
mp-1207074,Gd3SnC,5,Gd3 Sn1 C1,4.94748706,4.9474829,4.94746415,90,90,90,cubic,Pm-3m,21.8300514,-11.70081608,-0.60749527,0,TRUE,8.26101486,0,FALSE,121.1020862,,
mp-1207135,Gd3TlC,5,Gd3 Tl1 C1,4.96836386,4.96836698,4.96837114,90,90,90,cubic,Pm-3m,21.2553073,-11.18187285,-0.41617198,0,TRUE,9.3172411,0,FALSE,122.6425272,,
mp-1076933,GdAl3Cu,5,Gd1 Al3 Cu1,6.056301753,6.056301753,6.056301753,139.9514558,139.9514558,57.9270134,tet,I4mm,7.117645,-15.36879264,-0.48077338,0,TRUE,5.496854318,0,FALSE,91.15251225,,
mp-1178268,GdAlO3,5,Gd1 Al1 O3,3.735328,3.735328,3.735328,90,90,90,cubic,Pm-3m,6.9965953,-10.14683305,-3.613716829,0.085117609,FALSE,7.399130733,1.8885,FALSE,52.1178186,,
mp-5223,GdAlO3,20,Gd1 Al1 O3,5.24264768,5.30533641,7.44562991,89.99999293,90.00005176,89.99998479,ortho,Pnma,27.9999996,-10.22356627,-3.69045005,0.008384389,FALSE,7.448380871,3.2382,FALSE,207.092822,"{'voigt': 185.903, 'reuss': 183.1, 'vrh': 184.501}","{'voigt': 111.506, 'reuss': 106.457, 'vrh': 108.981}"
mp-753953,GdAsO3,20,Gd1 As1 O3,12.060432,4.44231,6.500154626,59.90759353,90,90,mono,P2_1/c,27.9999192,-9.474184692,-2.756159135,0.048771132,FALSE,6.176031603,2.1719,FALSE,301.3151021,,
mp-1194303,GdBO3,30,Gd1 B1 O3,6.630340993,6.63034203,9.681883074,70.33476037,70.33475606,60.09216631,mono,C2/c,42.0000001,-10.61890975,-3.499030348,0,TRUE,6.332712922,3.1001,FALSE,339.9251601,,
mp-1224628,GdBO3,10,Gd1 B1 O3,3.930880936,3.930880936,8.64031518,90,90,113.1449282,ortho,Ama2,14.0000004,-10.53352872,-3.413649317,0.085381031,FALSE,5.844997804,0.1743,FALSE,122.7630033,,
mp-29762,GdBO3,15,Gd1 B1 O3,6.129265409,6.129265409,6.129266154,62.98774565,62.98774565,62.98775685,trig,R32,20.9994212,-10.39948872,-3.279609315,0.219421033,FALSE,6.199244283,2.095,FALSE,173.6218445,,
mp-561949,GdBO3,10,Gd1 B1 O3,5.28102988,5.28102988,6.518395,90,90,119.9999985,hex_,P6_3/mmc,13.9999891,-10.47537291,-3.355493508,0.14353684,FALSE,4.557674388,2.2691,TRUE,157.4376367,,
mp-20967,GdBPd3,5,Gd1 B1 Pd3,4.305525,4.305525,4.305525,90,90,90,cubic,Pm-3m,7.0744849,-24.52168654,-0.596742473,0.120721311,FALSE,10.13878417,0,FALSE,79.8138657,,
mp-19840,GdBRh3,5,Gd1 B1 Rh3,4.19646217,4.19646627,4.19648879,90,90,90,cubic,Pm-3m,6.2813963,-25.42463664,-0.794227558,0,TRUE,10.71301549,0,FALSE,73.90147669,,
mp-1184468,GdBeO3,5,Gd1 Be1 O3,3.599403,3.599403,3.599403,90,90,90,cubic,Pm-3m,5.959154,-9.405294392,-2.873410768,0.315437449,FALSE,7.629560997,0,FALSE,46.63279249,,
mp-1184471,GdCdO3,5,Gd1 Cd1 O3,4.138427,4.138427,4.138427,90,90,90,cubic,Pm-3m,6.9336049,-7.78714926,-1.811146171,0.675020264,FALSE,7.442256581,0,FALSE,70.87709295,,
mp-20951,GdCoO3,5,Gd1 Co1 O3,3.773077,3.858134,3.773779,90,90,90,cubic,Pm-3m,8.7266229,-9.540154408,-2.329470013,0.23321203,FALSE,7.985495835,0,FALSE,54.93503924,,
mp-1069379,GdCoSi3,5,Gd1 Co1 Si3,5.612877539,5.612877539,5.612877539,137.4665121,137.4665121,61.72105028,tet,I4mm,6.8789372,-8.133100186,-0.636001576,0,TRUE,6.245549425,0,FALSE,79.87957773,,
mp-1147577,GdCrO3,5,Gd1 Cr1 O3,3.871736,3.871736,3.871736,90,90,90,cubic,Pm-3m,3.9990318,-10.65325297,-2.938642427,0.234661732,FALSE,7.359997181,0.7847,FALSE,58.03863769,,
mp-18331,GdCrO3,20,Gd1 Cr1 O3,5.31706381,5.54613965,7.61618941,90,90,90,ortho,Pnma,40.0000011,-10.8879147,-3.173304159,0,TRUE,7.607718597,2.6309,TRUE,224.5951684,,
mp-1184481,GdCuO3,5,Gd1 Cu1 O3,3.798793,3.798793,3.798793,90,90,90,cubic,Pm-3m,6.994289,-8.85020497,-2.246362585,0.159271216,FALSE,8.142018852,0,FALSE,54.81972937,,
mp-1184486,GdErO3,5,Gd1 Er1 O3,4.241146,4.241146,4.241146,90,90,90,cubic,Pm-3m,7.001956,-9.93883887,-3.241294057,0.734958888,FALSE,8.108380106,0.3657,FALSE,76.2868477,,
mp-766236,GdErO3,40,Gd1 Er1 O3,9.203974041,9.205196265,10.62369703,54.72360345,54.73550363,70.51267689,mono,C2,5.9999999,-10.66889429,-3.97134948,0.004903464,FALSE,8.24794686,3.2641,TRUE,599.9677435,,
mp-600576,GdFeO3,20,Gd1 Fe1 O3,5.35764278,5.64185001,7.68223768,90,90,90,ortho,Pnma,48.0089536,-10.27517855,-2.797173253,0.004078319,FALSE,7.468297682,0,FALSE,232.2111287,,
mp-1212456,GdGa3Os,15,Gd1 Ga3 Os1,6.42088356,6.42087623,6.42090036,89.99996823,90.00002686,89.99999001,cubic,Pm-3m,20.5617901,-7.362232748,-0.484677201,0,TRUE,10.47530706,0,FALSE,264.7189449,,
mp-1104851,GdGa3Ru,15,Gd1 Ga3 Ru1,6.42124033,6.42108281,6.41009931,90,90,90.0000182,cubic,Pm-3m,6.9923952,-7.069083892,-0.582121322,0,TRUE,8.811498975,0,FALSE,264.2968296,,
mp-18656,GdGaO3,20,Gd1 Ga1 O3,5.373171,5.619652,7.703354,90,90,90,ortho,Pnma,28.0001128,-9.467354193,-3.077733938,0.04892608,FALSE,7.85192888,3.3962,FALSE,232.6054791,,
mp-1212640,GdInO3,30,Gd1 In1 O3,6.367214475,6.367214541,12.34803472,90.00000308,90.00000487,119.9998517,hex_,P6_3cm,42.0000007,-9.283875621,-2.948039821,0,TRUE,7.35549791,1.7714,TRUE,433.5389137,,
mp-1212778,GdInO3,20,Gd1 In1 O3,5.603476,5.932986,8.215895,90,90,90,ortho,Pnma,28.0000002,-9.231639829,-2.895804029,0.052235792,FALSE,7.783289466,2.5213,TRUE,273.140261,,
mp-756424,GdLuO3,20,Gd1 Lu1 O3,5.672778,5.931047,8.264289,90,90,90,ortho,Pnma,28.0004082,-10.64233926,-3.954000719,0.055596962,FALSE,9.082510613,3.1346,FALSE,278.0562425,,
mp-510575,GdMnO3,20,Gd1 Mn1 O3,5.33266967,5.63531689,7.62006186,90,90,90,ortho,Pnma,44.0000015,-10.59835723,-2.981953118,0,TRUE,7.546957429,0.4041,FALSE,228.9926389,,
mp-1079303,GdNiGe3,10,Gd1 Ni1 Ge3,11.01922665,11.01922665,4.127765,90,90,158.3428095,ortho,Cmmm,13.9813376,-7.329480765,-0.584412268,0,TRUE,7.789809441,0,FALSE,184.9716943,,
mp-505604,GdNiO3,20,Gd1 Ni1 O3,5.23580731,5.49316529,7.47467175,90,90,90,ortho,Pnma,24.0000019,-9.389624715,-2.449596328,0,TRUE,8.154897114,0,FALSE,214.9801926,,
mp-20182,GdRh3C,5,Gd1 Rh3 C1,4.16968333,4.16967923,4.16969563,90,90,90,cubic,Pm-3m,7.000828,-9.540689496,-0.461147228,0,TRUE,10.94828777,0,FALSE,72.49533719,,
mp-1184503,GdRhO3,5,Gd1 Rh1 O3,3.963804,3.963804,3.963804,90,90,90,cubic,Pm-3m,6.9836175,-9.328475658,-2.071613033,0.424622491,FALSE,8.216369644,0,FALSE,62.27826638,,
mp-5690,GdScO3,20,Gd1 Sc1 O3,5.49028423,5.75677968,7.96255827,90,90,90,ortho,Pnma,27.9999996,-10.97082252,-3.920327644,0.011744572,FALSE,6.603534804,3.1418,TRUE,251.6674569,"{'voigt': 164.432, 'reuss': 160.8, 'vrh': 162.616}","{'voigt': 81.67, 'reuss': 80.173, 'vrh': 80.921}"
mp-510490,GdScS3,20,Gd1 Sc1 S3,6.41368888,7.06362167,9.53369315,90,90,90,ortho,Pnma,28.0000007,-18.04230638,-2.262208398,0,TRUE,4.588943874,1.1774,TRUE,431.9132118,,
mp-1069477,GdSi3Ir,5,Gd1 Si3 Ir1,4.211714,4.211714,5.745584377,111.5009997,111.5009997,90,tet,I4mm,6.8707792,-8.65090753,-0.812805428,0,TRUE,8.263298369,0,FALSE,87.15827309,,
mp-1184484,GdSiO3,5,Gd1 Si1 O3,3.730327,3.730327,3.730327,90,90,90,cubic,Pm-3m,6.5779426,-9.751558952,-2.882494295,0.60703388,FALSE,7.464244455,0,FALSE,51.90876675,,
mp-1184491,GdThO3,5,Gd1 Th1 O3,4.58893,4.58893,4.58893,90,90,90,cubic,Pm-3m,7.0243404,-10.40472389,-3.137951191,0.78119351,FALSE,7.514163318,0,FALSE,96.63496616,,
mp-510278,GdTiO3,20,Gd1 Ti1 O3,5.411929,5.706203,7.746719,90,90,90,ortho,Pnma,24.0002879,-10.98070213,-3.617602679,0.026689669,FALSE,7.02765129,0,FALSE,239.2308102,,
mp-756030,GdTmO3,20,Gd1 Tm1 O3,5.691408,5.949788,8.333527,90,90,90,ortho,Pnma,27.9598453,-10.6053963,-3.924894951,0.067847397,FALSE,8.807292061,3.159,FALSE,282.1954832,,
mp-541177,GdVO3,20,Gd1 V1 O3,5.340210449,5.67985439,7.572467958,90.13197242,89.91655894,90.03460105,ortho,Pnma,21.9999991,-10.85346617,-3.252683904,0,TRUE,7.408655934,0,FALSE,229.6843093,,
mp-1184599,GdZrO3,5,Gd1 Zr1 O3,4.162337,4.162337,4.162337,90,90,90,cubic,Pm-3m,6.6541714,-10.77372231,-3.280181135,0.392936962,FALSE,6.826865629,0,FALSE,72.11269373,,
mp-973738,GeBO3,5,Ge1 B1 O3,3.407341,3.407341,3.407341,90,90,90,cubic,Pm-3m,0.0001038,-6.239931454,-1.010670926,1.358852278,FALSE,5.517727488,0,FALSE,39.55913596,"{'voigt': 202.009, 'reuss': 202.009, 'vrh': 202.009}","{'voigt': 73.892, 'reuss': -367.618, 'vrh': -146.863}"
mp-1184562,GeBiO3,5,Ge1 Bi1 O3,3.94791,3.94791,3.94791,90,90,90,cubic,Pm-3m,0.0010192,-6.117669014,-1.446279978,0.423426929,FALSE,8.89526882,0,FALSE,61.53209908,,
mp-28369,GeH3Cl,10,Ge1 H3 Cl1,4.586317384,4.586318865,8.35736286,90,90,104.8259431,ortho,Cmc2_1,0,-3.735963525,-0.404550759,0,TRUE,2.171531545,4.7492,FALSE,169.9388812,"{'voigt': 1.62, 'reuss': 0.866, 'vrh': 1.242999999999999}","{'voigt': 1.155, 'reuss': 0.779, 'vrh': 0.967}"
mp-1188940,GeNCl3,20,Ge1 N1 Cl3,8.590112,8.552563,9.615191,90,90,90,ortho,Pnma,12.0000037,-7.894998092,0.396610897,1.172104375,FALSE,1.814789258,1.1093,TRUE,706.4037953,,
mp-1224374,GeNCl3,5,Ge1 N1 Cl3,6.497648119,6.497648119,6.49764843,95.38146972,95.38146972,95.38145965,trig,R3m,4.000805,-7.794300984,0.497308005,1.272801484,FALSE,1.185020552,0.4271,FALSE,270.4539634,,
mp-1017566,GePbO3,5,Ge1 Pb1 O3,3.888437,3.888437,3.888437,90,90,90,cubic,Pm-3m,0.0001146,-6.347383798,-1.71147221,0.217755943,FALSE,9.25941295,0,FALSE,58.79294309,"{'voigt': 157.328, 'reuss': 157.328, 'vrh': 157.328}","{'voigt': 103.813, 'reuss': 89.836, 'vrh': 96.824}"
mp-553898,GePbO3,60,Ge1 Pb1 O3,7.22947028,11.45931796,13.29401279,118.984505,89.9999901,90.0000005,mono,P2/c,0,-6.552029497,-1.916117909,0.013110244,FALSE,6.780851277,2.9339,FALSE,963.397868,,
mp-554699,GePbO3,30,Ge1 Pb1 O3,9.346834621,9.346834617,9.34683482,113.5018858,113.5018858,113.5018754,trig,R-3,0,-6.565139741,-1.929228153,0,TRUE,6.3557553,2.7131,FALSE,513.9167066,,
mp-624190,GePbS3,20,Ge1 Pb1 S3,10.51691811,6.899259188,7.398606342,74.60755248,90,90,mono,P2_1/c,0,-4.882144106,-0.73199338,0,TRUE,4.825704315,1.7579,FALSE,517.5790037,,
mp-1184557,GePdO3,5,Ge1 Pd1 O3,3.767674,3.767674,3.767674,90,90,90,cubic,Pm-3m,2.0008729,-5.865282322,-0.935923786,0.674000174,FALSE,7.049630161,0,FALSE,53.48351656,,
mp-541785,GePdS3,10,Ge1 Pd1 S3,3.47151536,7.581681148,9.321243387,106.7401816,90,103.2347361,mono,C2/m,0,-5.094248789,-0.650651115,0,TRUE,4.007212269,1.3441,FALSE,228.1245166,"{'voigt': 14.598, 'reuss': 1.725, 'vrh': 8.161}","{'voigt': 8.531, 'reuss': 1.641, 'vrh': 5.086}"
mp-1224339,GeSbTe3,5,Ge1 Sb1 Te3,10.16588788,10.16588788,10.16588814,23.88331071,23.88331071,23.88330986,trig,R3m,0.0033024,-3.964750424,-0.328361069,0.027202952,FALSE,6.334706398,0,FALSE,151.3034842,,
mp-1184641,GeTeO3,5,Ge1 Te1 O3,3.901783,3.901783,3.901783,90,90,90,cubic,Pm-3m,0.003015,-5.53675326,-1.014709907,0.727801492,FALSE,6.939503105,0,FALSE,59.40039549,,
mp-625509,H3BrO,5,H3 Br1 O1,4.243537036,4.265772796,4.243405519,71.96815334,72.0529535,72.07401259,trig,R3m,0,-4.383925334,-1.029843963,0,TRUE,2.432062286,4.4183,TRUE,67.54453392,,
mp-625521,H3BrO,5,H3 Br1 O1,4.276298453,4.276298453,4.429754639,71.60769411,71.60769411,70.76810896,mono,Cm,0.0013726,-4.383592362,-1.029510991,0.000332972,FALSE,2.329276516,4.417,TRUE,70.52512333,,
mp-1078197,H3CBr,10,H3 C1 Br1,4.470543984,4.470543984,8.082275,90,90,102.908134,ortho,Cmc2_1,0.0012708,-4.488575583,-0.278353314,0.05479283,FALSE,2.002548656,4.5531,FALSE,157.4484803,,
mp-1078233,H3CCl,10,H3 C1 Cl1,4.137763842,4.137763842,7.651655,90,90,103.5408506,ortho,Cmc2_1,0,-4.625037816,-0.372497522,0.079513755,FALSE,1.316495231,5.5721,FALSE,127.3631645,"{'voigt': 2.526, 'reuss': 3.614, 'vrh': 3.07}","{'voigt': 1.488, 'reuss': 35.147, 'vrh': 18.317}"
mp-1096983,H3CI,5,H3 C1 I1,15.47897893,15.47897893,15.47897935,90.20473349,90.20473349,90.20473612,trig,R3m,0.0004179,-4.336038568,-0.148403083,0.091890806,FALSE,0.063552437,4.2895,TRUE,3708.673502,,
mp-1181198,H3CI,20,H3 C1 I1,4.775167,7.237313,10.250821,90,90,90,ortho,Pnma,0.000182,-4.359877885,-0.1722424,0.068051489,FALSE,2.661253401,3.3729,FALSE,354.2619999,,
mp-554676,H3CS,40,H3 C1 S1,6.653195,8.746443,9.005909245,85.85458805,90,90,mono,P2_1/c,0.0013146,-4.939623659,-0.229118784,0.046965817,FALSE,1.197027054,3.7158,FALSE,522.698916,,
mp-559204,H3CS,40,H3 C1 S1,15.292967,5.368541,7.006773799,72.7721643,90,90,mono,P2_1/c,0.0001439,-4.940820294,-0.230315419,0.045769182,FALSE,1.138740772,3.5897,FALSE,549.4531846,,
mp-1200055,H3CSe,40,H3 C1 Se1,5.684396,10.06453165,12.44799344,86.30308249,76.80147567,73.59665617,ortho,Fdd2,0.0011612,-4.765331732,-0.183316474,0.006003464,FALSE,1.877315583,2.5842,FALSE,665.1266264,,
mp-2802611,H3ClO,5,H3 Cl1 O1,4.444629671,4.444629671,4.444630229,65.08674623,65.08674623,65.08674218,trig,R3m,0,-4.543942884,-1.147543488,0,TRUE,1.311451607,5.5013,TRUE,68.97691918,,