mp_id,formula,sites,composition,a_edge (angstrom),b_edge (angstrom),c_edge (angstrom),alpha_ang (deg),beta_ang (deg),gamma_ang (deg),crystal_system,space_group,total_magnetisation (bohr),energy_per_atom (eV/atom),formation_energy (eV/atom),energy_above_hull (eV/atom),stable,density (g/cc),band_gap (eV),direct_bandgap,volume (cubic-angstrom),bulk_modulus (GPa),shear_modulus (GPa)
mp-27898,Zr3AlN,10,Zr3 Al1 N1,3.36863777,6.016481369,8.99376521,90,90,106.2572745,ortho,Cmcm,9.00E-07,-17.93954996,-1.117505014,0,TRUE,5.971793952,0,FALSE,174.9911745,,
mp-18927,Zr3NiO,10,Zr3 Ni1 O1,3.346903,5.718720159,8.838629,90,90,107.0152866,ortho,Cmcm,0.00098,-8.251915777,-0.977675862,0.404408215,FALSE,7.151968775,0,FALSE,161.7661872,,
mp-1014226,Zr3ZnN,10,Zr3 Zn1 N1,5.98226859,5.98226859,8.88907579,90,90,147.4366943,ortho,Cmcm,3.78E-05,-18.28788851,-1.030142711,0,TRUE,6.848641575,0,FALSE,171.2210848,,
mp-1215405,ZrAlCr3,10,Zr1 Al1 Cr3,6.377127773,5.346767,4.917697,90,90,65.21499874,ortho,Cmcm,1.0543568,-14.82725531,0.113128173,0.33214795,FALSE,5.981728857,0,FALSE,152.2334401,,
mp-1237224,ZrAlCr3,10,Zr1 Al1 Cr3,5.899699935,5.899699935,5.279331,90,90,119.9999993,hex_,P6_3/mmc,0.0722268,-14.4436012,0.49678228,0.715802057,FALSE,5.722257681,0,FALSE,159.1363431,,
mp-972066,ZrAlO3,5,Zr1 Al1 O3,3.672301,3.672301,3.672301,90,90,90,cubic,Pm-3m,0.0466204,-8.373685418,-2.946253523,0.515989824,FALSE,5.572820739,0,FALSE,49.52389712,"{'voigt': 217.28, 'reuss': 217.28, 'vrh': 217.28}","{'voigt': 98.399, 'reuss': 97.969, 'vrh': 98.184}"
mp-1188026,ZrBO3,5,Zr1 B1 O3,3.448181,3.448181,3.448181,90,90,90,cubic,Pm-3m,0.0057902,-8.09859658,-2.084401497,1.162429119,FALSE,6.076679152,0,FALSE,40.9987073,,
mp-1068661,ZrBRh3,5,Zr1 B1 Rh3,4.11326891,4.11326891,4.11325671,90,90,90,cubic,Pm-3m,1.36E-05,-21.30159559,-0.800629195,0,TRUE,9.80095138,0,FALSE,69.59211264,,
mp-1207063,ZrBRh3,5,Zr1 B1 Rh3,4.75843,4.75843,4.75843,90,90,90,cubic,Pm-3m,0.0001131,-18.73703411,1.763932285,2.56456148,FALSE,6.33048816,0,FALSE,107.7434939,,
mp-1188011,ZrBeO3,5,Zr1 Be1 O3,3.469162,3.469162,3.469162,90,90,90,cubic,Pm-3m,2.00E-06,-8.293399844,-2.867200542,0.662112432,FALSE,5.89554967,0.6259,FALSE,41.75165949,,
mp-1239170,ZrBeO3,5,Zr1 Be1 O3,4.116191,4.116191,4.116191,90,90,90,cubic,Pm-3m,0.0018769,-7.325005726,-1.898806424,1.63050655,FALSE,3.529486201,0,FALSE,69.7407408,,
mp-1016845,ZrCdO3,5,Zr1 Cd1 O3,4.159472,4.159472,4.159472,90,90,90,cubic,Pm-3m,0.0017287,-7.35207437,-2.481755603,0.344875589,FALSE,5.806339459,0,FALSE,71.96388741,"{'voigt': 155.518, 'reuss': 155.518, 'vrh': 155.518}","{'voigt': 64.816, 'reuss': 51.485, 'vrh': 58.151}"
mp-1188065,ZrCoH3,10,Zr1 Co1 H3,5.512663283,5.512663283,4.36913105,90,90,143.1796287,ortho,Cmcm,2.7128215,-5.667087547,-0.493764214,0,TRUE,6.393162898,0,FALSE,79.57346426,,
mp-756665,ZrCoO3,20,Zr1 Co1 O3,5.033712155,5.414142003,8.396207675,89.99761957,89.95374454,90.00071824,ortho,Pnma,1.30E-06,-8.823393378,-2.718393305,0.078509807,FALSE,5.751934606,1.9991,FALSE,228.8237243,,
mp-761293,ZrCoO3,20,Zr1 Co1 O3,5.419936886,5.703626773,7.815718761,93.8318502,89.6562705,89.69350544,trig,R-3,0,-8.804838273,-2.6998382,0.097064912,FALSE,5.459938236,0,FALSE,241.0611699,,
mp-755055,ZrCrO3,20,Zr1 Cr1 O3,4.953036,5.382382,9.349989,89.99951005,89.99976789,89.99966773,ortho,Pnma,0,-9.600027272,-2.991101049,0.085932194,FALSE,5.09543704,1.5603,FALSE,249.2625892,,
mp-677041,ZrCuF3,20,Zr1 Cu1 F3,3.39926,5.546500404,19.65150109,95.41928911,91.20517636,105.6883205,tri,P1,0.002896,-6.114087852,-2.437819011,0.601922857,FALSE,3.96562141,0.4741,FALSE,354.6928636,,
mp-1016871,ZrHgO3,5,Zr1 Hg1 O3,4.18501,4.18501,4.18501,90,90,90,cubic,Pm-3m,0.0440064,-6.932652042,-2.192400906,0.349792741,FALSE,7.698366168,0,FALSE,73.29755705,"{'voigt': 146.764, 'reuss': 146.764, 'vrh': 146.764}","{'voigt': 48.451, 'reuss': 35.674, 'vrh': 42.062}"
mp-754513,ZrMnO3,10,Zr1 Mn1 O3,5.472075562,5.81228011,5.472013755,118.0757671,119.9984521,61.92016266,trig,R3c,0,-9.569091926,-3.058372139,0.042826421,FALSE,5.096572618,2.5635,TRUE,126.520584,,
mp-754980,ZrMnO3,10,Zr1 Mn1 O3,5.496104441,5.496020482,5.823815892,90.00097179,61.84462406,60.0009425,trig,R-3,0,-9.56466298,-3.053943193,0.047255367,FALSE,5.047528872,2.8707,FALSE,127.749907,,
mp-1246219,ZrMoN3,20,Zr1 Mo1 N3,8.568583653,5.869290501,7.950894936,122.2886818,116.28232,84.69724079,tri,P-1,0.0006425,-9.774810036,-0.89317324,0.112843735,FALSE,5.115909533,0,FALSE,297.5573739,,
mp-29658,ZrNiH3,10,Zr1 Ni1 H3,3.508491179,4.29288545,5.52038354,90,108.5284559,90,ortho,Cmcm,0,-5.438467611,-0.535800286,0,TRUE,6.442884518,0,FALSE,78.8357668,"{'voigt': 169.922, 'reuss': 163.456, 'vrh': 166.689}","{'voigt': 71.418, 'reuss': 67.376, 'vrh': 69.397}"
mp-1188025,ZrNiO3,5,Zr1 Ni1 O3,3.690521,3.690521,3.690521,90,90,90,cubic,Pm-3m,1.6399918,-7.600537864,-1.766193799,1.009210974,FALSE,6.538318644,0,FALSE,50.26469397,,
mp-972296,ZrOsO3,5,Zr1 Os1 O3,3.926308,3.926308,3.926308,90,90,90,cubic,Pm-3m,0.0002649,-8.15535153,-1.231561315,1.459629599,FALSE,9.038334596,0,FALSE,60.52754995,"{'voigt': 220.397, 'reuss': 220.397, 'vrh': 220.397}","{'voigt': -13.753, 'reuss': -398.763, 'vrh': -206.258}"
mp-1068577,ZrPbO3,5,Zr1 Pb1 O3,4.208933,4.208933,4.208933,90,90,90,cubic,Pm-3m,0,-8.214781556,-2.793935413,0.082224175,FALSE,7.715050541,2.2792,FALSE,74.56174053,,
mp-1100803,ZrPbO3,20,Zr1 Pb1 O3,4.295244326,8.444227196,8.429317,90,90,90.52704893,mono,Pm,0.000611,-8.260584683,-2.83973854,0.036421048,FALSE,7.526499024,2.6291,FALSE,305.7185524,,
mp-20337,ZrPbO3,5,Zr1 Pb1 O3,4.276790774,4.276790774,4.176356,90,90,91.63483789,ortho,Amm2,1.20E-06,-8.264104422,-2.843258279,0.032901309,FALSE,7.53352279,2.6727,FALSE,76.35838009,"{'voigt': 120.978, 'reuss': 116.391, 'vrh': 118.685}","{'voigt': 44.282, 'reuss': 24.083, 'vrh': 34.182}"
mp-542903,ZrPbO3,40,Zr1 Pb1 O3,5.978924,8.317035,11.945823,90,90,90,ortho,Pbam,1.75E-05,-8.271159751,-2.850313608,0.02584598,FALSE,7.747064329,2.7752,TRUE,594.0289867,"{'voigt': 113.882, 'reuss': 108.363, 'vrh': 111.123}","{'voigt': 61.983, 'reuss': 60.842, 'vrh': 61.413}"
mp-647557,ZrPbO3,40,Zr1 Pb1 O3,6.042341,8.386099,11.956119,90,90,90,ortho,Pba2,0.0037509,-8.266618267,-2.845772124,0.030387464,FALSE,7.596076936,3.2094,FALSE,605.8365143,,
mp-755798,ZrPbO3,20,Zr1 Pb1 O3,5.889325,5.92742,8.354309,90,90,90,ortho,Pnma,0.000136,-8.262060237,-2.841214093,0.034945494,FALSE,7.889928131,2.9213,FALSE,291.636419,,
mp-20244,ZrPbS3,20,Zr1 Pb1 S3,3.802192,9.20157497,14.02088112,90,90,90,ortho,Pnma,0,-6.354341739,-1.419256458,0.002771761,FALSE,5.343373851,1.2471,TRUE,490.5367164,,
mp-10706,ZrRu3C,5,Zr1 Ru3 C1,4.0755165,4.0755165,4.0755165,90,90,90,cubic,Pm-3m,4.10E-06,-9.44637781,-0.326463062,0,TRUE,9.970170724,0,FALSE,67.69365555,"{'voigt': 258.82, 'reuss': 258.82, 'vrh': 258.82}","{'voigt': 158.649, 'reuss': 155.854, 'vrh': 157.252}"
mp-1183043,ZrSiO3,5,Zr1 Si1 O3,3.663473,3.663473,3.663473,90,90,90,cubic,Pm-3m,1.4741266,-7.983369882,-2.219989547,1.072800042,FALSE,5.650489095,0,FALSE,49.16759724,,
mp-17324,ZrSnS3,20,Zr1 Sn1 S3,3.74441614,9.44076215,14.08601102,90,90,90,ortho,Pnma,0,-6.391487313,-1.397017075,0,TRUE,4.083517048,0.9944,FALSE,497.9424921,,
mp-1183045,ZrTiO3,5,Zr1 Ti1 O3,3.859099,3.859099,3.859099,90,90,90,cubic,Pm-3m,0.0951309,-8.98683964,-2.729424508,0.721928657,FALSE,5.405552075,0,FALSE,57.47219178,,
mp-1183044,ZrTlO3,5,Zr1 Tl1 O3,4.212646,4.212646,4.212646,90,90,90,cubic,Pm-3m,0.0018433,-7.606904402,-2.45429325,0.234880127,FALSE,7.632104482,0,FALSE,74.75924335,,
mp-1246572,ZrWN3,20,Zr1 W1 N3,6.380903404,7.871530649,5.75067486,94.29900769,92.62872463,108.1538975,tri,P-1,0.0009342,-21.30257922,-1.001811556,0.141286392,FALSE,7.71584252,0,FALSE,272.9607475,,
mp-1016883,ZrZnO3,5,Zr1 Zn1 O3,4.143062,4.143062,4.143062,90,90,90,cubic,Pm-3m,0.0675725,-7.176823658,-2.246558207,0.757972091,FALSE,4.778115583,0,FALSE,71.11550484,"{'voigt': 149.835, 'reuss': 149.835, 'vrh': 149.835}","{'voigt': 55.3, 'reuss': 34.822, 'vrh': 45.061}"
mp-505418,CsDyI3,20,Cs1 Dy1 I3,8.428655,8.683553,12.186846,90,90,90,ortho,Pnma,0.0913125,-3.491564266,-1.473735767,0.100725295,FALSE,5.034833119,0,FALSE,891.9634533,,
mp-638685,CsEuBr3,20,Cs1 Eu1 Br3,8.16822568,8.39819241,11.78891638,90,90,90,ortho,Pnma,28.0000006,-5.513263593,-2.293727465,0,TRUE,4.30858419,0.9374,TRUE,808.6999869,,
mp-1068377,CsEuCl3,5,Cs1 Eu1 Cl3,5.63313725,5.6331414,5.6331414,90,90,90,cubic,Pm-3m,7.0000004,-18.90685087,-2.491370083,0.010537762,FALSE,3.63435955,0.6374,TRUE,178.7522999,,
mp-1213256,CsEuCl3,20,Cs1 Eu1 Cl3,7.84786518,7.96416394,11.21136964,90,90,90,ortho,Pnma,28.0000005,-18.91738864,-2.501907845,0,TRUE,3.708421784,0,TRUE,700.7294922,,
mp-8396,CsEuF3,5,Cs1 Eu1 F3,4.76988464,4.76988464,4.76988464,90,90,90,cubic,Pm-3m,6.9976264,-18.17512473,-3.576914554,0.015776124,FALSE,5.2309393,0,FALSE,108.5234589,,
mp-1185550,CsEuO3,5,Cs1 Eu1 O3,4.602523,4.602523,4.602523,90,90,90,cubic,Pm-3m,4.0012924,-7.172962434,-1.966817624,0.296035448,FALSE,5.669343712,0,FALSE,97.4962479,,
mp-1079847,CsFeBr3,10,Cs1 Fe1 Br3,6.144093,7.621740967,7.621740967,119.999991,90,90,hex_,P6_3/mmc,7.9999822,-4.103058309,-1.247140322,0.121249258,FALSE,4.603573069,0,FALSE,309.0984456,,
mp-29400,CsFeCl3,10,Cs1 Fe1 Cl3,5.848597,7.500080164,7.50008,60.00000072,90,90,hex_,P6_3/mmc,8.0000004,-4.629992513,-1.647120451,0,TRUE,3.439917916,0,FALSE,284.9142252,"{'voigt': 14.549, 'reuss': -23.135, 'vrh': -4.293}","{'voigt': 78.661, 'reuss': -0.0, 'vrh': 39.33}"
mp-555302,CsFeF3,30,Cs1 Fe1 F3,6.300873177,6.300873177,14.847482,90,90,119.9999914,hex_,P6_3/mmc,24.0012438,-5.765303038,-2.744665591,0.007480316,FALSE,4.796243831,3.4247,TRUE,510.4873135,,
mp-558694,CsFeF3,5,Cs1 Fe1 F3,4.31177,4.31177,4.31177,90,90,90,cubic,Pm-3m,3.9996105,-5.459423128,-2.438785681,0.313360225,FALSE,5.090590906,0,FALSE,80.1616706,,
mp-562726,CsGaS3,20,Cs1 Ga1 S3,6.467407468,7.65688873,12.64182486,90,90,107.6289284,mono,P2_1/c,0,-13.11770149,-0.98830594,0,TRUE,3.326758497,2.6472,FALSE,596.6264355,,
mp-510283,CsGaSe3,20,Cs1 Ga1 Se3,13.15157149,6.773097371,7.814851754,73.89929473,90,90,mono,P2_1/c,0,-16.83473256,-0.939400318,0,TRUE,4.364842508,1.8736,FALSE,668.817675,,
mp-984082,CsGdO3,5,Cs1 Gd1 O3,4.545455,4.545455,4.545455,90,90,90,cubic,Pm-3m,5.0001556,-8.231932934,-2.268186059,0.21978663,FALSE,5.979034944,0,FALSE,93.91437829,,
mp-1068340,CsGeBr3,5,Cs1 Ge1 Br3,5.668240864,5.668240864,5.668241398,88.89687629,88.89687629,88.89686456,trig,R3m,0,-3.53509098,-1.448571664,0,TRUE,4.062130258,0.7856,TRUE,182.0146934,,
mp-570223,CsGeBr3,5,Cs1 Ge1 Br3,5.53332714,5.53332714,5.53332714,90,90,90,cubic,Pm-3m,0,-3.518245508,-1.431726192,0.016845472,FALSE,4.364165909,0.7607,TRUE,169.4178015,"{'voigt': 22.345, 'reuss': 22.345, 'vrh': 22.345}","{'voigt': 13.009, 'reuss': 11.854, 'vrh': 12.431}"
mp-642739,CsGeBr3,5,Cs1 Ge1 Br3,5.78863072,5.78863072,5.728079177,88.19674636,88.19674636,90.40477709,mono,Cm,0.000331,-3.53446659,-1.447947274,0.00062439,FALSE,3.85606159,1.4434,TRUE,191.7415934,,
mp-22988,CsGeCl3,5,Cs1 Ge1 Cl3,5.461891124,5.461891124,5.461891073,89.54623145,89.54623145,89.54621701,trig,R3m,0,-3.92553261,-1.712059219,0,TRUE,3.178939092,2.1535,FALSE,162.9252755,,
mp-28377,CsGeI3,5,Cs1 Ge1 I3,8.706732698,6.128081833,6.065933978,92.17638737,135.8628261,86.96676119,trig,R3m,0,-3.090217248,-1.071458284,0,TRUE,4.325382721,0.9905,TRUE,225.0681168,,
mp-642690,CsGeI3,5,Cs1 Ge1 I3,6.257706107,6.257706107,5.988627913,88.57680362,88.57680362,92.31435517,mono,Cm,0.0022664,-3.081577474,-1.06281851,0.008639774,FALSE,4.157331105,1.1901,TRUE,234.1660355,,
mp-984051,CsGeO3,5,Cs1 Ge1 O3,4.064553,4.064553,4.064553,90,90,90,cubic,Pm-3m,1.0095478,-5.357084634,-1.283956636,0.598347515,FALSE,6.269941171,0,FALSE,67.14881808,"{'voigt': 96.084, 'reuss': 96.084, 'vrh': 96.084}","{'voigt': 37.239, 'reuss': -52.473, 'vrh': -7.617}"
mp-1194175,CsHgBr3,30,Cs1 Hg1 Br3,12.63100851,12.63100851,14.50936956,56.78275534,56.78275534,37.30797283,mono,C2/c,0,-2.570832109,-1.346983956,0.003369847,FALSE,4.988906977,1.9018,FALSE,1144.739765,,
mp-27718,CsHgBr3,5,Cs1 Hg1 Br3,5.695005,5.695005,5.695005,90,90,90,cubic,Pm-3m,1.56E-05,-2.532679176,-1.308831023,0.04152278,FALSE,5.153218961,0,FALSE,184.7065639,"{'voigt': 22.568, 'reuss': 22.568, 'vrh': 22.568}","{'voigt': 8.457, 'reuss': 8.27, 'vrh': 8.363}"
mp-1197432,CsHgCl3,40,Cs1 Hg1 Cl3,15.707882,9.552009,10.96885994,55.08005614,90,90,mono,P2_1/c,0.004824,-2.887638984,-1.536836756,0.018041189,FALSE,4.329975585,0.9505,TRUE,1349.468119,,
mp-1228834,CsHgCl3,5,Cs1 Hg1 Cl3,5.400211799,5.400211799,5.400211809,89.83657629,89.83657629,89.83658394,trig,R3m,0.0003598,-2.871682494,-1.520880266,0.033997679,FALSE,4.63800271,0,FALSE,157.4806111,,
mp-29845,CsHgCl3,45,Cs1 Hg1 Cl3,13.3873208,13.38700318,9.469666016,90.00155691,89.99357249,120.0001367,trig,P3_2,0,-2.905680173,-1.554877946,0,TRUE,4.47258774,2,FALSE,1469.744115,,
mp-570591,CsHgCl3,5,Cs1 Hg1 Cl3,5.402792,5.402792,5.402792,90,90,90,cubic,Pm-3m,1.40E-06,-2.872839774,-1.522037546,0.032840399,FALSE,4.631304596,0,FALSE,157.7083705,"{'voigt': 27.743, 'reuss': 27.743, 'vrh': 27.743}","{'voigt': 10.156, 'reuss': 10.029, 'vrh': 10.092}"
mp-675010,CsHgCl3,10,Cs1 Hg1 Cl3,6.430336,6.430336,8.835192,90,90,90,tet,P-42_1m,0.003443,-2.826351826,-1.475549598,0.079328347,FALSE,3.998570527,2.0663,FALSE,365.3283072,,
mp-561947,CsHgF3,5,Cs1 Hg1 F3,4.59544972,4.59544972,4.59544972,90,90,90,cubic,Pm-3m,0,-3.638687946,-2.250120334,0,TRUE,6.681526474,0.7228,FALSE,97.04743386,"{'voigt': 49.422, 'reuss': 49.422, 'vrh': 49.422}","{'voigt': 17.451, 'reuss': 16.076, 'vrh': 16.764}"
mp-28295,CsIO3,10,Cs1 I1 O3,4.669043714,6.601774174,6.61473721,90,90,89.99353567,ortho,Pmn2_1,0,-4.827901017,-1.374576067,0,TRUE,5.013695697,3.0912,TRUE,203.8924746,,
mp-613384,CsIO3,5,Cs1 I1 O3,4.590332,4.590332,4.590332,90,90,90,cubic,Pm-3m,0.0094893,-2.861480212,0.591844738,1.966420805,FALSE,5.284414557,0,FALSE,96.72356435,,
mp-1112338,CsInBr3,10,Cs1 In1 Br3,8.145606524,8.145606524,8.145606524,60,60,60,cubic,Fm-3m,0,-3.261870632,-1.548122138,0,TRUE,4.235853402,1.3782,FALSE,382.1688494,,
mp-2649045,CsInBr3,5,Cs1 In1 Br3,5.69175635,5.69175635,5.68992117,90,90,90,cubic,Pm-3m,3.22E-05,-3.237481115,-1.523732621,0.024389517,FALSE,4.391039656,0,FALSE,184.3312003,,
mp-998323,CsInBr3,5,Cs1 In1 Br3,5.774009,5.774009,5.774409,90,90,90,tet,P4mm,0.0001869,-3.242876034,-1.52912754,0.018994598,FALSE,4.20439737,0,FALSE,192.5140607,,
mp-1112961,CsInCl3,10,Cs1 In1 Cl3,7.79253374,7.79253374,7.79253374,60,60,60,cubic,Fm-3m,0,-14.87219121,-1.645168885,0.014203414,FALSE,3.514490882,1.7757,FALSE,334.5962553,,
mp-1112960,CsInF3,10,Cs1 In1 F3,6.636698438,6.636698438,6.636698438,60,60,60,cubic,Fm-3m,0,-14.11761129,-2.707859579,0,TRUE,4.895949053,3.0609,FALSE,206.7003706,,
mp-998322,CsInF3,5,Cs1 In1 F3,4.674301,4.674301,4.674301,90,90,90,cubic,Pm-3m,0.0052589,-14.01120265,-2.601450935,0.106408644,FALSE,4.954480505,0,FALSE,102.1292225,,
mp-1112643,CsInI3,10,Cs1 In1 I3,8.811141635,8.811141635,8.811141635,60,60,60,cubic,Fm-3m,0.0005538,-2.797477308,-1.151489166,0.021831326,FALSE,4.314785346,0.0565,FALSE,483.7060833,,
mp-998314,CsInI3,5,Cs1 In1 I3,6.09660249,6.130694604,6.123509997,89.98627588,90,90,mono,Pm,0,-2.805654102,-1.15966596,0.013654532,FALSE,4.559453263,0,FALSE,228.8748014,,
mp-998430,CsInI3,20,Cs1 In1 I3,11.00212174,10.85624116,11.05191257,92.85821202,111.3879401,101.0574875,tri,P-1,0,-2.801468136,-1.155479995,0.017840498,FALSE,3.490349923,1.4872,FALSE,1195.919015,,
mp-984356,CsIrO3,5,Cs1 Ir1 O3,4.093677,4.093677,4.093677,90,90,90,cubic,Pm-3m,1.076199,-5.96647933,-1.050270067,0.211369962,FALSE,9.031453834,0,FALSE,68.60262262,,
mp-984357,CsKO3,5,Cs1 K1 O3,4.493182,4.493182,4.493182,90,90,90,cubic,Pm-3m,0.0002015,-3.78797655,-0.413180178,0.689797919,FALSE,4.027296459,0,FALSE,90.71143373,"{'voigt': 38.067, 'reuss': 38.067, 'vrh': 38.067}","{'voigt': 35.867, 'reuss': 30.165, 'vrh': 33.016}"
mp-1183918,CsLaO3,5,Cs1 La1 O3,4.765355,4.765355,4.765355,90,90,90,cubic,Pm-3m,1.9999964,-6.362289472,-2.226565624,0.251665629,FALSE,4.907430596,0,FALSE,108.21458,,
mp-29750,CsMgBr3,10,Cs1 Mg1 Br3,7.64834679,7.648346799,6.50988533,90,90,120.0000045,hex_,P6_3/mmc,0,-3.463099323,-1.975091575,0,TRUE,3.997105991,4.0445,TRUE,329.7912236,,
mp-23004,CsMgCl3,10,Cs1 Mg1 Cl3,7.29291267,7.292912737,6.18159097,90,90,119.9999997,hex_,P6_3/mmc,0,-3.930525774,-2.315563951,0,TRUE,3.074264559,5.1261,TRUE,284.7298034,,
mp-8401,CsMgF3,5,Cs1 Mg1 F3,4.252307,4.252307,4.252307,90,90,90,cubic,Pm-3m,1.74E-05,-11.15894824,-3.431053886,0.057630619,FALSE,4.626006179,6.7028,TRUE,76.89070343,"{'voigt': 62.499, 'reuss': 62.499, 'vrh': 62.499}","{'voigt': 38.209, 'reuss': 33.873, 'vrh': 36.041}"
mp-23751,CsMgH3,15,Cs1 Mg1 H3,8.24752906,8.247528437,8.247528802,44.39332444,44.39332696,44.39332498,trig,R-3m,0,-2.862864977,-0.319925287,0.002973088,FALSE,3.198211018,2.6161,FALSE,249.5850963,,
mp-571020,CsMgH3,30,Cs1 Mg1 H3,6.11707186,8.52803537,9.95206766,90,90,90,ortho,Pmmn,0,-2.865838065,-0.322898375,0,TRUE,3.075033588,2.9535,FALSE,519.1655844,,
mp-29751,CsMgI3,10,Cs1 Mg1 I3,8.29721548,8.297214955,7.03483124,90,90,119.9999979,hex_,P6_3/mmc,0,-2.910670538,-1.490423142,0,TRUE,4.259423944,3.152,FALSE,419.4199024,,
mp-984756,CsMgO3,5,Cs1 Mg1 O3,4.292401,4.292401,4.292401,90,90,90,cubic,Pm-3m,3,-4.796850304,-1.322233874,0.48208435,FALSE,4.308676645,0,FALSE,79.08622794,,
mp-23048,CsMnBr3,10,Cs1 Mn1 Br3,7.65942696,7.659433697,6.5245266,90,90,120.0000287,hex_,P6_3/mmc,9.9999999,-4.563924619,-1.569607816,0,TRUE,4.283503587,0,FALSE,331.4915425,,
mp-23336,CsMnCl3,15,Cs1 Mn1 Cl3,10.06014829,10.06014743,10.06014844,42.59069864,42.5907019,42.59070069,trig,R-3m,15,-13.55107943,-1.903108246,0,TRUE,3.470400823,1.4829,FALSE,422.3155462,,
mp-558702,CsMnF3,30,Cs1 Mn1 F3,6.21865967,6.218659678,15.0791449,90.00000275,89.99999592,119.9996263,hex_,P6_3/mmc,30.0000033,-6.1501574,-2.991121137,0,TRUE,4.830341797,3.4556,FALSE,505.0130044,,
mp-540609,CsMnI3,10,Cs1 Mn1 I3,8.27830944,8.27831801,6.99357684,90,90,120.0000326,hex_,P6_3/mmc,9.9999994,-4.061614498,-1.135058047,0.002209436,FALSE,4.549246094,0,FALSE,415.0625998,,
mp-1183917,CsMoO3,5,Cs1 Mo1 O3,4.13308,4.13308,4.13308,90,90,90,cubic,Pm-3m,0.9997941,-7.094930356,-1.777277907,0.373782435,FALSE,6.511217942,0,FALSE,70.60272032,,
mp-1196533,CsNO3,40,Cs1 N1 O3,9.304298,9.304298,9.304298,90,90,90,cubic,Pa-3,0.0201926,-6.210908775,-1.394730799,0.021673316,FALSE,3.214571983,3.2764,TRUE,805.4727175,,
mp-22628,CsNO3,10,Cs1 N1 O3,5.55043639,5.07934978,6.15494142,90,90,90,ortho,Pmmn,7.80E-05,-6.228212318,-1.412034342,0.004369774,FALSE,3.730395034,3.0919,TRUE,173.5238498,,
mp-561851,CsNO3,45,Cs1 N1 O3,10.84690041,10.84480427,7.680832796,89.99256164,89.99247834,119.9923396,trig,P3_1,0,-6.232582091,-1.416404115,0,TRUE,3.722431332,3.2965,FALSE,782.5278762,"{'voigt': -70081481.712, 'reuss': 68669.81, 'vrh': -35006405.951}","{'voigt': -3843530948.5, 'reuss': 255922.942, 'vrh': -1921637512.779}"
mp-998309,CsNaF3,5,Cs1 Na1 F3,4.593457796,4.593457796,4.567736581,86.45145411,86.45145411,87.59780667,mono,Cm,0.9999984,-3.989099236,-2.394121876,0.012379129,FALSE,3.684760365,0,FALSE,95.93917709,,
mp-998609,CsNaF3,20,Cs1 Na1 F3,4.158445,7.002554,13.573251,90,90,90,ortho,Pnma,4.0011304,-4.001478365,-2.406501005,0,TRUE,3.577617621,0.0295,FALSE,395.2494813,,
mp-1183929,CsNaO3,5,Cs1 Na1 O3,4.448345,4.448345,4.448345,90,90,90,cubic,Pm-3m,8.10E-05,-3.68425351,-0.267386927,0.840846187,FALSE,3.84642194,0,FALSE,88.02284215,,
mp-1096944,CsNbO3,5,Cs1 Nb1 O3,4.170919,4.170919,4.170919,90,90,90,cubic,Pm-3m,1.68E-05,-7.751388582,-2.582605147,0.251293347,FALSE,6.266184612,1.2762,TRUE,72.55966476,,
mp-27556,CsNbO3,40,Cs1 Nb1 O3,16.04611897,5.169600477,9.291497475,86.83904432,90,90,mono,P2_1/c,0,-8.002681929,-2.833898494,0,TRUE,4.726470912,3.3517,FALSE,769.5758858,,
mp-1183922,CsNdO3,5,Cs1 Nd1 O3,4.717574,4.717574,4.717574,90,90,90,cubic,Pm-3m,2.0020867,-6.251415182,-2.149263268,0.281777196,FALSE,5.142459551,0,FALSE,104.9919891,,