mp_id,composition,a_edge (angstrom),b_edge (angstrom),c_edge (angstrom),alpha_ang (deg),beta_ang (deg),gamma_ang (deg),crystal_system,space_group,formation_energy (eV/atom),energy_above_hull (eV/atom),band_gap (eV),A_site,B_site,X_site
mp-673854,Nd1 V1 Sb3,6.244855,7.938952,10.305953,90.0,90.0,90.0,ortho,Pbcm,-0.406407852,0.236884056,0.0,Nd,V,Sb
mp-1101702,Nd1 Zr1 O3,6.150013,8.226357,11.316666,90.0,90.0,90.0,ortho,Pbam,-3.449557482,0.199981823,0.0,Nd,Zr,O
mp-756246,Nd1 Zr1 O3,7.617524479,7.617524479,7.617524479,120.4407397,120.4407397,89.23829666,tet,I-4m2,-3.563446996,0.086092309,0.0509,Nd,Zr,O
mp-771131,Nd1 Zr1 O3,5.86120563,5.86120563,5.631084115,61.40900686,61.40900686,89.4329289,mono,C2/m,-3.449507886,0.200031419,0.0,Nd,Zr,O
mp-8370,Ni3 Ge1 C1,3.808709,3.808709,3.808709,90.0,90.0,90.0,cubic,Pm-3m,0.088064762,0.320086342,0.0,Ge,C,Ni
mp-1247483,Ni3 Sb1 N1,3.918868,3.93131784,3.932399006,90.0057806,90.0,90.0,cubic,Pm-3m,0.022412838,0.124102878,0.0,Sb,N,Ni
mp-1017632,Ni3 Sn1 N1,3.908518,3.908518,3.908518,90.0,90.0,90.0,cubic,Pm-3m,-0.073574104,0.080494424,0.0,Sn,N,Ni
mp-1209766,Ni1 Ag1 F3,4.3472,4.3472,4.3472,90.0,90.0,90.0,cubic,Pm-3m,-0.804011254,0.984853386,0.0,Ni,Ag,F
mp-998365,Ni1 Ag1 F3,4.003954,4.003954,4.003954,90.0,90.0,90.0,cubic,Pm-3m,-1.737134982,0.051729658,0.0,Ni,Ag,F
mp-998429,Ni1 Ag1 F3,5.673142486,5.673142486,7.633911,90.0,90.0,148.8249859,ortho,Cmcm,-1.763396484,0.025468156,0.761,Ni,Ag,F
mp-976763,Ni1 As1 O3,3.696375,3.696375,3.696375,90.0,90.0,90.0,cubic,Pm-3m,-0.524627451,1.013732004,0.0,Ni,As,O
mp-1105718,Ni1 Bi1 O3,5.458353,5.724991104,7.845574923,92.22669738,90.36464566,91.89383067,tri,P-1,-1.344834674,0.020718875,0.0,Ni,Bi,O
mp-23532,Ni1 Bi1 O3,5.375657,5.733563,7.744353,90.0,90.0,90.0,ortho,Pnma,-1.320862572,0.044690978,0.0,Ni,Bi,O
mp-25096,Ni1 Bi1 O3,7.84876,5.368422,5.682201538,89.66086381,90.0,90.0,mono,P2_1/m,-1.333310959,0.032242591,0.3548,Ni,Bi,O
mp-998363,Ni1 Bi1 O3,3.918214637,3.918214637,3.870917934,89.27844767,89.27844767,88.3689796,mono,Cm,-1.226809195,0.138744354,0.0,Ni,Bi,O
mp-998527,Ni1 Bi1 O3,5.451923405,5.452222019,5.41812975,120.2047601,59.79557502,119.9986571,trig,R3,-1.354572157,0.010981392,0.0,Ni,Bi,O
mp-19147,Ni1 C1 O3,5.54107893,5.54107561,5.541064912,48.98950167,48.98953696,48.98944422,trig,R-3c,-1.654682736,0.0,0.0,Ni,C,O
mp-1246271,Ni1 Mo1 N3,10.78986986,5.736937447,8.845699424,121.4130621,109.7584035,104.5752721,tri,P-1,0.0987697,0.336908487,0.0,Ni,Mo,N
mp-977100,Ni1 Mo1 O3,3.927638,3.927638,3.927638,90.0,90.0,90.0,cubic,Pm-3m,-0.763874613,0.93629262,0.0,Ni,Mo,O
mp-1205931,Ni1 N1 Cl3,6.276783655,6.276783655,5.696479,90.0,90.0,119.9999964,hex_,P6_3/mmc,0.394136336,0.984235921,0.0,Ni,N,Cl
mp-1068795,Ni1 N1 F3,3.928837,3.928837,3.928837,90.0,90.0,90.0,cubic,Pm-3m,-0.093037456,1.459136969,0.0,Ni,N,F
mp-1192886,Ni1 N1 F3,5.497348847,5.497348847,14.229351,90.0,90.0,120.0000102,hex_,P6_3/mmc,-0.382213965,1.16996046,0.0,Ni,N,F
mp-676040,Ni1 P1 S3,5.821405871,5.821405871,6.895947376,81.97374968,81.97374968,120.0210906,mono,C2/m,-0.518131498,0.0513325,0.0,Ni,P,S
mp-1079754,Ni1 P1 Se3,6.163277281,6.163277281,6.932315344,81.51156731,81.51156731,120.0312915,mono,C2/m,-0.17434911,0.053721649,0.0,Ni,P,Se
mp-1078668,Ni1 Pb1 O3,5.391244267,5.392400659,5.614263966,90.0013138,61.30477485,120.002273,trig,R3c,-1.289322197,0.0,0.0,Ni,Pb,O
mp-974108,Ni1 Pb1 O3,3.810554,3.810554,3.810554,90.0,90.0,90.0,cubic,Pm-3m,-0.922363727,0.36695847,0.0,Ni,Pb,O
mp-1186345,Ni1 Pd1 O3,3.690086,3.690086,3.690086,90.0,90.0,90.0,cubic,Pm-3m,-0.142819505,0.780930656,0.0,Ni,Pd,O
mp-1186112,Ni1 Pt1 O3,3.95444,3.95444,3.95444,90.0,90.0,90.0,cubic,Pm-3m,0.199207573,1.242403567,0.0,Ni,Pt,O
mp-976848,Ni1 Ru1 O3,3.717644,3.717644,3.717644,90.0,90.0,90.0,cubic,Pm-3m,-0.161081927,1.200749332,0.0,Ni,Ru,O
mp-1186113,Ni1 Sb1 O3,3.801767,3.801767,3.801767,90.0,90.0,90.0,cubic,Pm-3m,-0.957017399,0.662873085,0.0,Ni,Sb,O
mp-20460,Ni1 Se1 O3,4.94119162,5.87229752,7.49794122,90.00024741,89.99996045,90.00011801,ortho,Pnma,-1.25510434,0.0,0.0,Ni,Se,O
mp-572987,Ni1 Se1 O3,9.307125701,9.307125701,14.92818341,72.67401993,72.67401993,64.59910441,mono,C2/c,-1.18914056,0.06596378,3.0748,Ni,Se,O
mp-754654,Ni1 Sn1 O3,5.317042731,5.316915871,9.924700819,90.00262946,74.45697111,119.9982329,trig,R-3,-1.725544297,0.026179026,1.7717,Ni,Sn,O
mp-1209810,Ni1 Te1 O3,5.26689,5.999317,7.582289,90.0,90.0,90.0,ortho,Pnma,-1.372126153,0.046346222,2.5735,Ni,Te,O
mp-1209979,Ni1 Te1 O3,5.486615,5.618953,8.154857,90.0,90.0,90.0,ortho,Pnma,-1.131105865,0.28736651,0.1442,Ni,Te,O
mp-1210158,Ni1 W3 N1,5.253211,6.174006,7.939797,90.0,90.0,90.0,ortho,Pnma,0.0008124,0.199750458,0.0,Ni,N,W
mp-1186110,Np1 Al1 O3,3.765853,3.765853,3.765853,90.0,90.0,90.0,cubic,Pm-3m,-3.291052587,0.042764798,0.0,Np,Al,O
mp-977058,Np1 B1 O3,3.575258,3.575258,3.575258,90.0,90.0,90.0,cubic,Pm-3m,-2.262327973,0.843248485,0.0,Np,B,O
mp-973930,Np1 Be1 O3,3.569773,3.569773,3.569773,90.0,90.0,90.0,cubic,Pm-3m,-2.969447078,0.432417751,0.0,Np,Be,O
mp-1186320,Np1 Hg1 O3,4.266996,4.266996,4.266996,90.0,90.0,90.0,cubic,Pm-3m,-2.379468141,0.161507687,0.0,Np,Hg,O
mp-1186334,Np1 Mo1 O3,4.025898,4.025898,4.025898,90.0,90.0,90.0,cubic,Pm-3m,-2.092779537,0.674409528,0.0,Np,Mo,O
mp-973919,Np1 Os1 O3,3.983435,3.983435,3.983435,90.0,90.0,90.0,cubic,Pm-3m,-1.642031167,0.973443296,0.0,Np,Os,O
mp-1186329,Np1 Ru1 O3,3.962522,3.962522,3.962522,90.0,90.0,90.0,cubic,Pm-3m,-1.860831009,0.771782608,0.0,Np,Ru,O
mp-1186349,Np1 Si1 O3,3.782846,3.782846,3.782846,90.0,90.0,90.0,cubic,Pm-3m,-2.525231757,0.617340154,0.0,Np,Si,O
mp-1186346,Np1 Sn1 O3,4.159438,4.159438,4.159438,90.0,90.0,90.0,cubic,Pm-3m,-1.991661788,0.820941681,0.0,Np,Sn,O
mp-1186357,Np1 Ta1 O3,4.038472,4.038472,4.038472,90.0,90.0,90.0,cubic,Pm-3m,-2.679753408,0.418006776,0.0,Np,Ta,O
mp-977184,Np1 Tc1 O3,3.974724,3.974724,3.974724,90.0,90.0,90.0,cubic,Pm-3m,-2.040862776,0.684869142,0.0,Np,Tc,O
mp-977152,Np1 Ti1 O3,3.918337,3.918337,3.918337,90.0,90.0,90.0,cubic,Pm-3m,-3.144405459,0.17949956,0.0,Np,Ti,O
mp-680932,Os1 Pb1 O3,7.309274686,7.309673325,7.309817577,60.00259407,60.00078554,60.00014,cubic,Fd-3m,-1.400550859,0.0,0.0,Os,Pb,O
mp-1189731,P1 Br3 O1,6.564227,10.251911,10.600444,90.0,90.0,90.0,ortho,Pna2_1,-1.254594087,0.000385994,3.0889,P,O,Br
mp-558645,P1 Br3 O1,6.23327798,9.45171737,10.00192486,90.0,90.0,90.0,ortho,Pnma,-1.254980081,0.0,3.0735,P,O,Br
mp-540785,P1 C1 F3,11.381078,11.381078,6.346774,90.0,90.0,90.0,tet,P4_2/nmc,-0.942914065,1.160725882,0.0,P,C,F
mp-556383,P1 C1 F3,9.999739,10.075466,17.71624524,69.17588854,90.0,90.0,mono,P2_1/c,-1.505969717,0.597670229,3.2358,P,C,F
mp-2015815,P1 Cl3 O1,5.84665617,9.43054642,9.21331222,90.0,90.0,90.0,ortho,Pnma,-1.587025779,0.0,4.4933,P,O,Cl
mp-27277,P1 Cl3 O1,6.071253,9.813344,9.902843,90.0,90.0,90.0,ortho,Pna2_1,-1.583869424,0.003156356,4.4681,P,O,Cl
mp-753611,P1 Cl3 O1,5.969239,9.504725,12.104269,90.0,90.0,90.0,ortho,Pna2_1,-1.577913705,0.009112075,4.5483,P,O,Cl
mp-1179877,P1 N1 O3,6.018035,10.557824,13.898839,90.0,90.0,90.0,ortho,Pccn,-1.034981438,0.782203443,0.2711,P,N,O
mp-1197085,P1 N1 O3,7.374399199,7.374399199,14.281334,90.0,90.0,90.05854303,ortho,Cmce,-0.920845863,0.896339017,0.6745,P,N,O
mp-1198759,P1 N1 O3,7.607523477,7.607523477,12.466894,90.0,90.0,90.27005881,ortho,Cmce,-0.535096311,1.282088569,0.081,P,N,O
mp-1200596,P1 N1 O3,8.062301,9.99505,11.449645,90.0,90.0,90.0,ortho,Pccn,-0.289085041,1.52809984,0.3045,P,N,O
mp-726260,P1 N1 O3,4.497915,5.559655,13.246712,90.0,90.0,90.0,ortho,P2_12_12_1,-1.083190377,0.733994504,1.8076,P,N,O
mp-1195541,P1 Pb1 O3,9.18988449,9.18988449,8.195841,90.0,90.0,103.891612,ortho,Cmc2_1,-1.968432615,0.310789519,0.0,P,Pb,O
mp-20199,P1 Pb1 S3,7.54168117,6.720128832,11.40176682,55.58233766,90.0,90.0,mono,P2_1/c,-0.724972456,0.0,2.3061,P,Pb,S
mp-20316,P1 Pb1 Se3,7.75459885,7.041006259,11.9151436,55.47624294,90.0,90.0,mono,P2_1/c,-0.411696906,0.0,1.6645,P,Pb,Se
mp-977455,Pa1 Ag1 O3,4.3149707,4.3149707,4.3149707,90.0,90.0,90.0,cubic,Pm-3m,-2.830395251,0.0,0.915,Pa,Ag,O
mp-973877,Pa1 B1 O3,3.619435,3.619435,3.619435,90.0,90.0,90.0,cubic,Pm-3m,-2.231474645,1.126952343,0.0,Pa,B,O
mp-1186392,Pa1 Be1 O3,3.607687,3.607687,3.607687,90.0,90.0,90.0,cubic,Pm-3m,-3.202705434,0.452009925,0.0,Pa,Be,O
mp-540540,Pa1 Br3 O1,9.077382622,9.077382622,9.888127456,63.04330053,63.04330053,25.54622802,mono,C2/m,-2.542195352,0.0,1.749,Pa,O,Br
mp-1186400,Pa1 Co1 O3,3.782153,3.782153,3.782153,90.0,90.0,90.0,cubic,Pm-3m,-2.292076873,0.630228624,0.0,Pa,Co,O
mp-1186395,Pa1 Hg1 O3,4.34288662,4.34288662,4.34288662,90.0,90.0,90.0,cubic,Pm-3m,-2.799456756,0.0,0.0,Pa,Hg,O
mp-1186404,Pa1 Os1 O3,3.960572,3.960572,3.960572,90.0,90.0,90.0,cubic,Pm-3m,-1.652130343,1.164462956,0.0,Pa,Os,O
mp-1186401,Pa1 Si1 O3,3.820904,3.820904,3.820904,90.0,90.0,90.0,cubic,Pm-3m,-2.391746251,1.00367619,0.0,Pa,Si,O
mp-1186403,Pa1 Ta1 O3,4.037848,4.037848,4.037848,90.0,90.0,90.0,cubic,Pm-3m,-2.61386804,0.736742674,0.0,Pa,Ta,O
mp-862832,Pa1 Tl1 O3,4.37641728,4.37641728,4.37641728,90.0,90.0,90.0,cubic,Pm-3m,-3.167280824,0.0,2.6427,Pa,Tl,O
mp-982245,Pb1 Au1 O3,4.148796,4.148796,4.148796,90.0,90.0,90.0,cubic,Pm-3m,-0.602920519,0.329485498,0.0,Pb,Au,O
mp-1105697,Pb1 C1 O3,8.565431,5.260156,6.281331388,89.9182887,90.0,90.0,mono,P2_1/c,-1.80726323,0.001962894,3.3642,Pb,C,O
mp-19893,Pb1 C1 O3,5.18693591,6.06501914,8.54295691,90.0,90.0,90.0,ortho,Pnma,-1.809226124,0.0,3.3293,Pb,C,O
mp-20507,Pb1 S1 O3,5.570302,6.907102,8.054018,90.0,90.0,90.0,ortho,Pnma,-1.716767492,0.081017958,3.6415,Pb,S,O
mp-21190,Pb1 S1 O3,5.407462,4.565639,6.5079617,73.44685591,90.0,90.0,mono,P2_1/m,-1.715216193,0.082569257,3.2251,Pb,S,O
mp-20716,Pb1 Se1 O3,4.543913329,5.53663,6.590420842,90.0,106.6598799,90.0,mono,P2_1/m,-1.455736836,0.000837875,2.8909,Pb,Se,O
mp-630329,Pb1 Se1 O3,8.07301543,8.848565589,9.189320976,76.60234519,90.0,90.0,mono,P2_1/c,-1.456574712,0.0,3.3672,Pb,Se,O
mp-21031,Pd3 Pb1 C1,4.298945,4.298945,4.298945,90.0,90.0,90.0,cubic,Pm-3m,0.194308503,0.434254573,0.0,Pb,C,Pd
mp-545482,Pd1 Se1 O3,3.915402921,6.170011595,6.445083638,90.00388517,90.00382256,96.54886135,mono,P2_1/m,-1.032893985,0.0,1.0589,Pd,Se,O
mp-546684,Pd1 Se1 O3,4.943915295,4.943776336,7.046745115,109.4413762,109.4478237,90.67431604,mono,C2/m,-1.028225301,0.004668684,0.8236,Pd,Se,O
mp-1186533,Pm1 Be1 O3,3.638462,3.638462,3.638462,90.0,90.0,90.0,cubic,Pm-3m,-2.885722042,0.273470728,0.0,Pm,Be,O
mp-1186557,Pm1 Er1 O3,4.266351,4.266351,4.266351,90.0,90.0,90.0,cubic,Pm-3m,-3.31152114,0.635076357,1.6958,Pm,Er,O
mp-1186571,Pm1 Eu1 O3,4.446997,4.446997,4.446997,90.0,90.0,90.0,cubic,Pm-3m,-2.84233522,0.798301508,0.0,Pm,Eu,O
mp-1186597,Pm1 In1 O3,4.14608,4.14608,4.14608,90.0,90.0,90.0,cubic,Pm-3m,-2.435841808,0.479242335,1.6185,Pm,In,O
mp-1186600,Pm1 Mg1 O3,3.85676416,3.85677751,3.85680204,90.0,90.0,90.0,cubic,Pm-3m,-2.820906727,0.312467389,0.0,Pm,Mg,O
mp-1232288,Pm1 Mg1 S3,6.975734846,6.975734846,6.807285376,74.35313055,74.35313055,110.6185614,mono,C2/m,-1.530924512,0.379496916,0.2109,Pm,Mg,S
mp-1232152,Pm1 Mg1 Se3,8.552830981,12.059555,8.038909517,90.0,138.0384729,90.0,mono,C2/m,-1.414945529,0.336197094,0.0,Pm,Mg,Se
mp-1232203,Pm1 Mg1 Se3,7.000498,7.000498773,19.625022,90.0,90.0,119.9999963,trig,R-3,-1.473896847,0.277245777,0.0,Pm,Mg,Se
mp-1237948,Pm1 Mg1 Se3,7.361748927,7.361748927,6.838448749,76.3288096,76.3288096,116.406067,mono,C2/m,-1.380227046,0.370915577,0.0,Pm,Mg,Se
mp-983513,Pm1 Ru1 O3,3.963814,3.963814,3.963814,90.0,90.0,90.0,cubic,Pm-3m,-2.186149372,0.38784893,0.0,Pm,Ru,O
mp-2647018,Pm1 Ti1 O3,3.920102069,3.920489043,3.920162054,90.00944235,89.98357129,90.01410431,cubic,Pm-3m,-3.460296333,0.109473933,0.0,Pm,Ti,O
mp-1186669,Pm1 W1 O3,4.1273,4.1273,4.1273,90.0,90.0,90.0,cubic,Pm-3m,-2.279003827,0.555546558,0.0,Pm,W,O
mp-10039,Pr3 Al1 C1,5.137283,5.137283,5.137283,90.0,90.0,90.0,cubic,Pm-3m,-0.137789834,0.058784596,0.0,Al,C,Pr
mp-1094072,Pr3 Al1 N1,5.0424066,5.0424066,5.0424066,90.0,90.0,90.0,cubic,Pm-3m,-0.845842965,0.0,0.0,Al,N,Pr
mp-20684,Pr3 Al1 N1,5.587362,5.587362,5.587362,90.0,90.0,90.0,cubic,Pm-3m,1.015425827,1.861268792,0.0,Al,N,Pr
mp-8368,Pr3 Ga1 C1,5.537393,5.537393,5.537393,90.0,90.0,90.0,cubic,Pm-3m,1.225618286,1.499269545,0.0,Ga,C,Pr
mp-19749,Pr3 In1 C1,5.831276,5.831276,5.831276,90.0,90.0,90.0,cubic,Pm-3m,1.58061216,1.827949422,0.0,In,C,Pr
mp-20990,Pr3 In1 N1,5.07883424,5.07883424,5.07883424,90.0,90.0,90.0,cubic,Pm-3m,-0.999355071,0.0,0.0,In,N,Pr
mp-21135,Pr3 In1 O1,5.01386593,5.01386074,5.01386074,90.0,90.0,90.0,cubic,Pm-3m,-1.510910203,0.0,0.0,In,O,Pr
mp-20388,Pr3 Pb1 C1,5.930013,5.930013,5.930013,90.0,90.0,90.0,cubic,Pm-3m,1.56862808,1.887780893,0.0,Pb,C,Pr
mp-20543,Pr3 Sn1 C1,5.88102718,5.88102718,5.8810346,90.0,90.0,90.0,cubic,Pm-3m,1.422193644,1.825235302,0.0,Sn,C,Pr
mp-1206822,Pr3 Sn1 N1,5.05045937,5.05046559,5.05046559,90.0,90.0,90.0,cubic,Pm-3m,-0.983364599,0.0,0.0,Sn,N,Pr
mp-7166,Pr3 Tl1 C1,5.871802,5.871802,5.871802,90.0,90.0,90.0,cubic,Pm-3m,1.601312875,1.810166216,0.0,Tl,C,Pr
mp-1219803,Pr1 Al3 Ag1,4.305298048,4.305298048,6.325608988,70.13945489,70.13946475,90.03529006,tet,I4mm,-0.410090093,0.0,0.0,Pr,Ag,Al
mp-1069825,Pr1 Al3 Cu1,6.097226883,6.097226883,6.097226883,139.33091,139.33091,58.87063967,tet,I4mm,-0.511863236,0.0,0.0,Pr,Cu,Al
mp-3466,Pr1 Al1 O3,5.313161821,5.313161678,5.313160873,60.4327145,60.43271113,60.43272144,trig,R-3c,-3.655848326,0.0,4.1325,Pr,Al,O
mp-8218,Pr1 Al1 O3,5.315935953,5.31593982,5.315951879,59.99999238,59.99991844,60.00005234,cubic,Pm-3m,-3.637824913,0.018023413,2.8792,Pr,Al,O
mp-861504,Pr1 B1 O3,5.07421834,5.77535461,8.16741715,90.0,90.0,90.0,ortho,Pnma,-3.446497389,0.0,4.6526,Pr,B,O
mp-2976,Pr1 B1 Pd3,4.397572,4.397572,4.397572,90.0,90.0,90.0,cubic,Pm-3m,-0.536617634,0.110912753,0.0,Pr,B,Pd
mp-11596,Pr1 B1 Pt3,4.03625293,4.03625293,5.10236568,90.0,90.0,90.0,tet,P4mm,-0.846625818,0.0,0.0,Pr,B,Pt
mp-5200,Pr1 B1 Rh3,4.24621053,4.24624226,4.24620336,90.0,90.0,90.0,cubic,Pm-3m,-0.668315504,0.0,0.0,Pr,B,Rh
mp-862754,Pr1 B1 S3,7.66742708,6.02901654,8.97746712,90.0,90.0,90.0,ortho,Pna2_1,-1.550227003,0.0,2.4441,Pr,B,S
mp-1186742,Pr1 Be1 O3,3.680409,3.680409,3.680409,90.0,90.0,90.0,cubic,Pm-3m,-2.853243746,0.252533759,0.0,Pr,Be,O
mp-976727,Pr1 Bi1 O3,4.448834,4.448834,4.448834,90.0,90.0,90.0,cubic,Pm-3m,-1.919920315,0.765578477,0.0,Pr,Bi,O
mp-13125,Pr1 Co1 Ge3,5.787387694,5.787387694,5.787387694,136.2953947,136.2953947,63.52397956,tet,I4mm,-0.561541403,0.0,0.0,Pr,Co,Ge
mp-20090,Pr1 Co1 O3,5.40230677,5.34896231,7.59490712,90.0,90.0,90.0,ortho,Pnma,-2.497417969,0.0,0.0,Pr,Co,O
mp-20427,Pr1 Co1 O3,3.818819,3.818819,3.818819,90.0,90.0,90.0,cubic,Pm-3m,-2.381077041,0.116340928,0.0,Pr,Co,O
mp-569153,Pr1 Co1 Sb3,6.212405,12.170227,12.855429,90.0,90.0,90.0,ortho,Pbcm,-0.640224429,0.009924976,0.0,Pr,Co,Sb
mp-13007,Pr1 Cr1 Ge3,6.18380729,6.18380729,5.757806,90.0,90.0,119.9999924,hex_,P6_3/mmc,-0.399436592,0.034544735,0.0,Pr,Cr,Ge
mp-1105822,Pr1 Cr1 O3,5.46700644,5.52184358,7.7524912,90.0,90.0,90.0,ortho,Pnma,-3.121656221,0.0,2.0419,Pr,Cr,O
mp-19353,Pr1 Cr1 O3,3.886788,3.886788,3.886788,90.0,90.0,90.0,cubic,Pm-3m,-3.003632961,0.118023259,1.847,Pr,Cr,O
mp-1209589,Pr1 Cr1 Sb3,6.27080792,6.20440328,13.25433018,90.0,90.0,90.0,ortho,Pbcm,-0.589970723,0.00904716,0.0,Pr,Cr,Sb
mp-861512,Pr1 Cr1 Se3,3.97378937,8.18812469,13.77453414,90.0,90.0,90.0,ortho,Pnma,-1.4921576,0.0,0.0,Pr,Cr,Se
mp-1186515,Pr1 Cu1 O3,3.846484,3.846484,3.846484,90.0,90.0,90.0,cubic,Pm-3m,-2.312583337,0.02469268,0.0,Pr,Cu,O
mp-1199144,Pr1 Er1 S3,3.96697321,11.0433063,21.5370807,78.58082629,90.0,90.0,mono,P2_1/m,-2.383820075,0.0,0.6393,Pr,Er,S
mp-1069147,Pr1 Fe1 Ge3,5.826913979,5.826913979,5.826913979,136.6352255,136.6352255,62.99978067,tet,I4mm,-0.489482641,0.0,0.0,Pr,Fe,Ge
mp-22341,Pr1 Fe1 O3,5.49878697,5.63563068,7.82389895,90.0,90.0,90.0,ortho,Pnma,-2.757081589,0.0,1.0793,Pr,Fe,O
mp-1200999,Pr1 Fe1 Sb3,6.183377,12.186885,12.888024,90.0,90.0,90.0,ortho,Pbcm,-0.600670702,0.021099055,0.0,Pr,Fe,Sb
mp-1210142,Pr1 Fe1 Sb3,6.297982,12.837543,18.328004,90.0,90.0,90.0,ortho,Pbcm,-0.580959424,0.040810333,0.0,Pr,Fe,Sb
mp-1219979,Pr1 Ga3 Au1,4.325099194,4.325097714,6.184387706,69.59754446,69.59753927,90.10098336,tet,I4mm,-0.607911421,0.0,0.0,Pr,Au,Ga
mp-1220010,Pr1 Ga3 Ni1,4.15414065,4.15414065,6.007960431,69.77426435,69.77426435,90.0,tet,I-4m2,-0.530069899,0.046517406,0.0,Pr,Ni,Ga
mp-1219974,Pr1 Ga3 Pd1,6.127424246,6.127424246,6.127424246,139.515171,139.515171,58.5901875,tet,I-4m2,-0.685830151,0.0,0.0,Pr,Pd,Ga
mp-1219973,Pr1 Ga3 Pt1,6.144710443,6.144710443,6.144710443,139.8260152,139.8260152,58.1175652,tet,I-4m2,-0.723026001,0.0,0.0,Pr,Pt,Ga
mp-4535,Pr1 Ga1 O3,5.508641,5.609537,7.837221,90.0,90.0,90.0,ortho,Pnma,-3.03401171,0.029260601,3.3909,Pr,Ga,O
mp-9833,Pr1 Ga1 O3,4.603177,4.603177,4.603177,90.0,90.0,90.0,cubic,Pm-3m,-1.588868873,1.474403438,0.0,Pr,Ga,O
mp-13072,Pr1 Ge3 Rh1,5.916428591,5.916428591,5.916428591,136.1819902,136.1819902,63.69910077,tet,I4mm,-0.700915795,0.0,0.0,Pr,Rh,Ge
mp-1186747,Pr1 Hf1 O3,4.125883,4.125883,4.125883,90.0,90.0,90.0,cubic,Pm-3m,-3.449797213,0.22375294,0.0,Pr,Hf,O
mp-755462,Pr1 Hf1 O3,5.759292,5.88939,8.156554,90.0,90.0,90.0,ortho,Pnma,-3.538281838,0.135268315,0.0,Pr,Hf,O
mp-1211193,Pr1 In3 Pt1,10.089444,10.089444,10.089444,90.0,90.0,90.0,cubic,Pm-3n,-0.566113702,0.03360796,0.0,Pr,Pt,In
mp-1105130,Pr1 In1 O3,5.67275125,5.96435251,8.20708483,90.0,90.0,90.0,ortho,Pnma,-2.85627256,0.005396318,2.6336,Pr,In,O
mp-21872,Pr1 Lu1 O3,5.73312695,5.96712043,8.28217456,89.99996985,89.99996573,89.99996202,ortho,Pnma,-3.913910494,0.012616476,4.8757,Pr,Lu,O
mp-1078537,Pr1 Lu1 S3,6.577864898,6.577864898,9.49266203,90.0,90.0,145.6458729,ortho,Cmcm,-2.391086762,0.0,0.785,Pr,Lu,S
mp-1206692,Pr1 Lu1 S3,6.674728462,6.674728462,9.992751,90.0,90.0,146.9332487,ortho,Cmcm,-2.239079968,0.152006794,0.7198,Pr,Lu,S
mp-13326,Pr1 Lu1 Se3,4.0329571,6.851853697,9.9481706,90.0,90.0,107.1153746,ortho,Cmcm,-2.189735595,0.0,0.4935,Pr,Lu,Se
mp-1232298,Pr1 Mg1 S3,8.157704607,11.448985,7.783897932,90.0,128.6292523,90.0,mono,C2/m,-1.513474971,0.391016098,0.1745,Pr,Mg,S
mp-1232362,Pr1 Mg1 S3,7.002782,7.002781905,17.281357,90.0,90.0,120.0000004,trig,R-3,-1.573289923,0.331201146,0.0,Pr,Mg,S
mp-1237949,Pr1 Mg1 S3,6.97442942,6.97442942,6.570926358,76.89383711,76.89383711,114.635453,mono,C2/m,-1.461619204,0.442871865,0.0,Pr,Mg,S
mp-1232136,Pr1 Mg1 Se3,7.376735641,7.376735641,6.885591592,76.46579677,76.46579677,115.8867134,mono,C2/m,-1.365800567,0.388387465,0.0,Pr,Mg,Se
mp-1232200,Pr1 Mg1 Se3,7.100363,7.10036348,19.63625,90.0,90.0,120.0000024,trig,R-3,-1.462173372,0.292014659,0.0,Pr,Mg,Se
mp-22564,Pr1 Mn1 O3,5.47926694,5.57528151,7.78248656,90.0,90.0,90.0,ortho,Pnma,-2.943615976,0.0,0.057,Pr,Mn,O
mp-975913,Pr1 Nb1 O3,4.086932,4.086932,4.086932,90.0,90.0,90.0,cubic,Pm-3m,-2.925943977,0.342085202,0.0,Pr,Nb,O
mp-13073,Pr1 Ni1 Ge3,4.14413027,4.19133551,11.08945961,90.0,100.7690061,90.0,ortho,Cmmm,-0.592177524,0.000252171,0.0,Pr,Ni,Ge
mp-19170,Pr1 Ni1 O3,5.325053074,5.325063373,5.325124142,61.61702793,61.6168865,61.62421106,trig,R-3c,-2.405585992,0.001081603,0.0,Pr,Ni,O
mp-22280,Pr1 Ni1 O3,5.37445976,5.42801121,7.63202038,90.0,90.0,90.0,ortho,Pnma,-2.406667594,0.0,0.0,Pr,Ni,O
mp-570394,Pr1 Ni1 Sb3,6.25385066,12.82277019,18.3944112,90.0,90.0,90.0,ortho,Pbcm,-0.733577933,0.0,0.0,Pr,Ni,Sb
mp-1186471,Pr1 Pb1 O3,4.537287,4.537287,4.537287,90.0,90.0,90.0,cubic,Pm-3m,-1.980562581,0.585463062,0.0,Pr,Pb,O
mp-10708,Pr1 Rh3 C1,4.22136644,4.22136644,4.22136644,90.0,90.0,90.0,cubic,Pm-3m,-0.353060612,0.022491175,0.0,Pr,C,Rh
mp-4789,Pr1 Rh1 O3,5.40540234,5.82736449,7.84373387,90.0,90.0,90.0,ortho,Pnma,-2.471270425,0.0,0.6013,Pr,Rh,O
mp-20186,Pr1 Ru1 O3,5.380915,5.986599,7.852293,90.0,90.0,90.0,ortho,Pnma,-2.480910365,0.075639104,0.0,Pr,Ru,O
mp-559756,Pr1 Sc1 O3,5.6176864,5.82086436,8.06007464,90.0,90.0,90.0,ortho,Pnma,-3.878540393,0.0,4.2605,Pr,Sc,O
mp-1189962,Pr1 Sc1 S3,6.52742262,7.18798791,9.61925523,90.0,90.0,90.0,ortho,Pnma,-2.294959637,0.0,1.8377,Pr,Sc,S
mp-1202224,Pr1 Si1 As3,6.023156,26.683435,5.952776,90.0,90.0,90.0,ortho,Pna2_1,-0.598959544,0.030635547,0.0,Pr,Si,As