mp_id,formula,sites,composition,a_edge (angstrom),b_edge (angstrom),c_edge (angstrom),alpha_ang (deg),beta_ang (deg),gamma_ang (deg),crystal_system,space_group,total_magnetisation (bohr),energy_per_atom (eV/atom),formation_energy (eV/atom),energy_above_hull (eV/atom),stable,density (g/cc),band_gap (eV),direct_bandgap,volume (cubic-angstrom),bulk_modulus (GPa),shear_modulus (GPa)
mp-977148,LiBeH3,30,Li1 Be1 H3,5.866831667,5.866831667,8.322584,90,90,120.224482,ortho,Cmcm,0.0010669,-3.489246482,-0.322479473,0.006979619,FALSE,0.763868701,4.4673,FALSE,247.5193955,,
mp-977298,LiBeH3,20,Li1 Be1 H3,5.911691491,5.911691491,4.692281152,76.01843499,76.01843499,85.26266512,mono,C2/c,0.0001522,-3.478912668,-0.312145658,0.017313433,FALSE,0.816572778,4.5932,FALSE,154.3624967,,
mp-982975,LiBeO3,5,Li1 Be1 O3,3.507241,3.507241,3.507241,90,90,90,cubic,Pm-3m,3.0302921,-5.445053,-1.346609251,0.570123488,FALSE,2.461513394,0,FALSE,43.14165767,"{'voigt': 112.446, 'reuss': 112.446, 'vrh': 112.446}","{'voigt': 19.74, 'reuss': 12.761, 'vrh': 16.251}"
mp-29077,LiBiO3,40,Li1 Bi1 O3,4.94691395,8.88109117,10.77666513,90,90,90,ortho,Pccn,0,-5.763866972,-1.635298933,0,TRUE,7.40501012,0.1443,FALSE,473.461939,,
mp-1197831,LiBrO3,40,Li1 Br1 O3,7.006457,7.012956,12.617017,90,90,90,ortho,Pbca,14.3152677,-4.201212564,-0.523262081,0.253321242,FALSE,2.889427963,0,FALSE,619.9494276,,
mp-1079781,LiCaAl3,10,Li1 Ca1 Al3,6.933798682,6.933798682,5.243784,90,90,120.0000065,hex_,P6_3/m,0.0004708,-5.748857459,0.175401562,0.4720191,FALSE,1.946470127,0,FALSE,218.3322314,,
mp-1017626,LiCaF3,5,Li1 Ca1 F3,3.761244,3.761244,3.761244,90,90,90,cubic,Pm-3m,3.90E-06,-7.38210828,-3.622915532,0.187439322,FALSE,3.245990518,6.5153,FALSE,53.21015498,"{'voigt': 79.537, 'reuss': 79.537, 'vrh': 79.537}","{'voigt': 50.218, 'reuss': 47.772, 'vrh': 48.995}"
mp-1079935,LiCaH3,10,Li1 Ca1 H3,5.119740479,5.119740479,5.119739575,61.18455606,61.18455606,61.18455605,trig,R-3c,0.0018014,-4.532460518,-0.574393054,0.021480728,FALSE,1.705965896,2.5547,TRUE,97.4205379,,
mp-975333,LiCaO3,5,Li1 Ca1 O3,3.77971,3.77971,3.77971,90,90,90,cubic,Pm-3m,3,-5.401248822,-1.64956767,0.348430505,FALSE,2.921970902,0,FALSE,53.99772205,,
mp-1185203,LiCdO3,5,Li1 Cd1 O3,3.761737,3.761737,3.761737,90,90,90,cubic,Pm-3m,3,-4.218561136,-0.675997922,0.538053035,FALSE,5.220475318,0,FALSE,53.23108107,,
mp-973613,LiCeO3,5,Li1 Ce1 O3,3.68336,3.68336,3.68336,90,90,90,cubic,Pm-3m,1.0025296,-7.08321141,-2.54526026,0.471113553,FALSE,6.48147914,0,FALSE,49.97266407,"{'voigt': 156.051, 'reuss': 156.051, 'vrh': 156.051}","{'voigt': 41.212, 'reuss': -5.663, 'vrh': 17.775}"
mp-759500,LiCoF3,15,Li1 Co1 F3,5.122774174,5.119782161,7.56879515,89.54726029,90.24117511,120.1723153,tri,P1,9.0000002,-5.539686688,-2.58433139,0.088006856,FALSE,3.566730687,2.833,FALSE,171.6104727,,
mp-764370,LiCoF3,15,Li1 Co1 F3,5.133697235,5.133697235,7.547379,90,90,119.9999901,trig,P3,9.0000001,-5.539011968,-2.58365667,0.088681576,FALSE,3.553258206,3.0432,FALSE,172.2611484,,
mp-1185311,LiCrO3,5,Li1 Cr1 O3,3.678979,3.678979,3.678979,90,90,90,cubic,Pm-3m,1.0006766,-6.947906294,-1.666735624,0.409366555,FALSE,3.566056856,0,FALSE,49.79456314,,
mp-752701,LiCuF3,20,Li1 Cu1 F3,5.174564,5.283253897,7.918842472,88.59963804,87.06488842,85.81429906,tri,P-1,0.0051284,-6.868944009,-2.3480508,0.017969336,FALSE,3.927765668,0.1548,FALSE,215.5823002,,
mp-753405,LiCuF3,20,Li1 Cu1 F3,9.65586736,3.206197454,7.503504336,74.43748308,90,90,mono,P2_1/c,3.9999999,-6.854987138,-2.33409393,0.031926206,FALSE,3.783852119,0.5237,FALSE,223.781673,,
mp-758052,LiCuF3,10,Li1 Cu1 F3,5.435852857,5.435852857,5.435851728,55.12123596,55.12123596,55.12123193,trig,R3c,2,-6.84734186,-2.326448652,0.039571484,FALSE,4.204759306,0,FALSE,100.6902769,,
mp-760814,LiCuF3,20,Li1 Cu1 F3,5.091637699,5.091637699,8.761179,90,90,93.22139186,ortho,Amm2,3.9979398,-6.814325506,-2.293432298,0.072587838,FALSE,3.733945052,0,FALSE,226.7726883,,
mp-761262,LiCuF3,20,Li1 Cu1 F3,4.999326,5.264514478,8.600587986,89.96622443,89.73426473,89.97557767,tri,P1,4.0005075,-6.857426347,-2.336533139,0.029486997,FALSE,3.740808975,0.4097,TRUE,226.3565884,,
mp-761897,LiCuF3,30,Li1 Cu1 F3,5.056906814,5.056906814,14.611702,90,90,120.0000106,hex_,P6_122,6.0015743,-6.84551582,-2.324622611,0.041397524,FALSE,3.925081124,0.7299,FALSE,323.5946203,,
mp-1185308,LiDyO3,5,Li1 Dy1 O3,3.674686,3.674686,3.674686,90,90,90,cubic,Pm-3m,1.9978179,-6.53206,-2.257823718,0.412528428,FALSE,7.27656201,0,FALSE,49.62045066,,
mp-1185310,LiErO3,5,Li1 Er1 O3,3.655435,3.655435,3.655435,90,90,90,cubic,Pm-3m,1.9999748,-6.500061526,-2.235956588,0.460419717,FALSE,7.553920964,0,FALSE,48.84467198,,
mp-541365,LiEuH3,5,Li1 Eu1 H3,3.71667895,3.71671165,3.71667895,90,90,90,cubic,Pm-3m,7.0000002,-10.87741794,-0.622832676,0,TRUE,5.237261797,0,FALSE,51.3415487,"{'voigt': 47.287, 'reuss': 47.287, 'vrh': 47.287}","{'voigt': 49.931, 'reuss': 49.912, 'vrh': 49.922}"
mp-1185344,LiEuO3,5,Li1 Eu1 O3,3.763456,3.763456,3.763456,90,90,90,cubic,Pm-3m,4.0085695,-7.397550944,-1.989367385,0.40104815,FALSE,6.445487587,0,FALSE,53.30408941,,
mp-1097043,LiFeF3,10,Li1 Fe1 F3,5.590433933,5.590433933,5.590433933,119.2797474,119.2797474,91.25210787,tet,I4/mcm,8.0001461,-5.86642065,-2.643744454,0.177927555,FALSE,3.186075113,2.7983,FALSE,124.8566785,,
mp-1176698,LiFeF3,10,Li1 Fe1 F3,5.166437229,5.07588953,4.831859052,89.90787177,89.96065389,120.7520558,ortho,C222_1,7.9997498,-6.008428476,-2.78575228,0.035919729,FALSE,3.65310474,3.7202,FALSE,108.8944293,,
mp-1176705,LiFeF3,20,Li1 Fe1 F3,6.293344583,6.293344583,6.453069,90,90,109.2750614,ortho,Cmcm,15.9999711,-5.975344488,-2.752668292,0.069003717,FALSE,3.297781586,3.4694,TRUE,241.2547621,,
mp-1176706,LiFeF3,20,Li1 Fe1 F3,4.927426,6.446867,7.373944,90,90,90,ortho,Pbcm,15.9999863,-6.010892456,-2.78821626,0.033455749,FALSE,3.396480508,0.0069,FALSE,234.2440977,,
mp-1176707,LiFeF3,30,Li1 Fe1 F3,7.021042,7.236590737,7.87495474,94.44735984,102.9381626,90.0939888,tri,P-1,24.0001098,-5.971748182,-2.749071986,0.072600023,FALSE,3.070196774,3.4609,FALSE,388.7074203,,
mp-1176709,LiFeF3,20,Li1 Fe1 F3,6.132567,6.132567,6.132567,90,90,90,cubic,P2_13,15.9994917,-5.988241202,-2.765565006,0.056107003,FALSE,3.44961699,3.6062,TRUE,230.6358979,,
mp-1176718,LiFeF3,30,Li1 Fe1 F3,6.555608,6.675088226,8.804832426,90.58382742,104.5747279,96.80973418,tri,P-1,24.0000001,-5.961999352,-2.739323156,0.082348853,FALSE,3.225930082,3.1318,TRUE,369.9423849,,
mp-1176724,LiFeF3,90,Li1 Fe1 F3,6.911964,7.973585855,21.26715075,83.01047849,82.88734625,89.06448116,tri,P-1,14,-5.853118424,-2.630442228,0.191229781,FALSE,3.101278255,3.0341,FALSE,1154.435207,,
mp-1407616,LiFeF3,10,Li1 Fe1 F3,6.304264367,6.304264367,3.235396,90,90,109.5952555,ortho,Cmmm,0.0001067,-5.47717066,-2.254494464,0.567177545,FALSE,3.283834912,4.2544,TRUE,121.1396939,,
mp-1446564,LiFeF3,10,Li1 Fe1 F3,5.069674022,5.069674022,4.831859,90,90,118.7331834,hex_,P6_322,4.00E-07,-5.629792561,-2.407116365,0.414555644,FALSE,3.65308096,4.3867,FALSE,108.8951382,,
mp-754051,LiFeF3,10,Li1 Fe1 F3,5.701385927,5.701385927,5.701385104,53.97861217,53.97861217,53.97861545,trig,R-3,7.9992753,-5.797996269,-2.575320073,0.246351936,FALSE,3.532436709,0.0107,TRUE,112.6142628,,
mp-754581,LiFeF3,20,Li1 Fe1 F3,3.031441,7.838957,9.990446,90,90,90,ortho,Pnma,15.999948,-5.962387419,-2.739711223,0.081960786,FALSE,3.351239793,3.3554,FALSE,237.4063216,,
mp-754707,LiFeF3,20,Li1 Fe1 F3,7.093731828,7.093731828,5.715725277,73.83625029,73.83625029,79.42169848,mono,C2/c,16.0002418,-5.985098239,-2.762422043,0.059249966,FALSE,3.01856051,3.4248,FALSE,263.5711656,,
mp-754816,LiFeF3,20,Li1 Fe1 F3,5.33027,5.353386,7.896101,90,90,90,ortho,Pnma,16.0000017,-6.004866095,-2.782189899,0.03948211,FALSE,3.531078083,3.5148,TRUE,225.3151851,,
mp-754994,LiFeF3,20,Li1 Fe1 F3,7.032361409,7.032361409,5.79063177,72.29659831,72.29659831,67.64287451,mono,C2/c,15.9980867,-5.989252959,-2.766576763,0.055095246,FALSE,3.228068789,3.2461,FALSE,246.4648568,,
mp-755103,LiFeF3,20,Li1 Fe1 F3,6.542068769,6.542068769,5.87188933,87.43974465,87.43974465,79.1665961,mono,C2/m,15.99956,-5.946793939,-2.724117743,0.097554266,FALSE,3.228719336,3.1784,TRUE,246.4151972,,
mp-755136,LiFeF3,10,Li1 Fe1 F3,5.075314974,5.075314974,7.169032,90,90,146.2384427,ortho,Cmcm,7.9961779,-5.956579181,-2.733902985,0.087769024,FALSE,3.876245026,3.5861,FALSE,102.6258024,,
mp-755179,LiFeF3,10,Li1 Fe1 F3,5.809004,4.040656,5.567039022,70.19480646,90,90,mono,P2_1/m,8.0004811,-5.94359481,-2.720918614,0.100753395,FALSE,3.235709701,3.2084,FALSE,122.9414233,,
mp-755575,LiFeF3,20,Li1 Fe1 F3,3.057776,5.393068,14.687126,90,90,90,ortho,Pnma,16.0089028,-5.948791043,-2.726114847,0.095557162,FALSE,3.284879166,3.468,FALSE,242.2023678,,
mp-756109,LiFeF3,20,Li1 Fe1 F3,5.04873,5.328973,8.092654,90,90,90,ortho,Pnma,15.9999988,-5.981010478,-2.758334282,0.063337727,FALSE,3.654106031,3.5185,TRUE,217.7291806,,
mp-756113,LiFeF3,20,Li1 Fe1 F3,5.502934,6.582029029,6.894886595,83.31857513,83.66283367,83.84485465,tri,P-1,16.0000894,-6.000458599,-2.777782403,0.043889606,FALSE,3.242142409,0,FALSE,245.3949924,,
mp-760354,LiFeF3,15,Li1 Fe1 F3,5.204578,5.210010537,7.660117199,89.86489198,89.88291936,60.36033268,tri,P1,12,-5.952500942,-2.729824746,0.091847263,FALSE,3.305253911,3.2235,FALSE,180.5320106,,
mp-761166,LiFeF3,10,Li1 Fe1 F3,5.264507365,5.264507365,5.586626321,62.53720544,62.53720544,59.6416665,mono,Cc,7.9999238,-6.02037269,-2.797696494,0.023975515,FALSE,3.515258572,3.5869,FALSE,113.1645789,,
mp-775760,LiFeF3,50,Li1 Fe1 F3,6.967106,7.915190558,12.14921946,106.148431,94.38548247,90.63333499,tri,P-1,40.0001018,-5.959759278,-2.737083082,0.084588927,FALSE,3.101551755,3.1951,FALSE,641.2963372,,
mp-776017,LiFeF3,40,Li1 Fe1 F3,5.742143,9.248487,10.062567,90,90,90,ortho,Pbcn,32.000102,-5.993718686,-2.77104249,0.050629519,FALSE,2.977654465,3.4207,TRUE,534.3840404,,
mp-776026,LiFeF3,40,Li1 Fe1 F3,8.811519,8.811519,6.203392,90,90,90,tet,P4_2/n,32.0000638,-5.943053455,-2.720377259,0.10129475,FALSE,3.303672507,3.2462,FALSE,481.6491405,,
mp-776027,LiFeF3,40,Li1 Fe1 F3,8.732069,8.732069,6.210444,90,90,90,tet,P4_2/n,31.9999475,-5.951759021,-2.729082825,0.092589184,FALSE,3.360243976,3.162,FALSE,473.5403248,,
mp-776077,LiFeF3,40,Li1 Fe1 F3,8.980068,5.672869,10.26738351,75.33245017,90,90,mono,P2_1/c,0,-6.003502576,-2.78082638,0.040845629,FALSE,3.144665465,3.3838,TRUE,506.003275,,
mp-776080,LiFeF3,40,Li1 Fe1 F3,4.990726,8.719738,10.589535,90,90,90,ortho,Pccn,31.9998126,-6.015972888,-2.793296692,0.028375317,FALSE,3.452897814,3.6432,FALSE,460.8335114,,
mp-776524,LiFeF3,70,Li1 Fe1 F3,6.898029,7.909536889,16.50510541,91.4267911,96.53777708,90.86812597,tri,P-1,55.9999976,-5.967386936,-2.74471074,0.076961269,FALSE,3.11394394,2.624,FALSE,894.241947,,
mp-776604,LiFeF3,60,Li1 Fe1 F3,5.801413,5.814777649,23.26951837,89.96246625,89.95894415,60.45980752,tri,P-1,47.999834,-5.97686141,-2.754185214,0.067486795,FALSE,3.494947167,2.2238,FALSE,682.93351,,
mp-777470,LiFeF3,30,Li1 Fe1 F3,12.29873847,12.29873847,12.29873798,27.45728192,27.45728192,27.45728169,trig,R-3c,24.0003193,-5.831450833,-2.608774637,0.212897372,FALSE,3.418897651,3.5665,FALSE,349.0622972,,
mp-777489,LiFeF3,30,Li1 Fe1 F3,8.814018324,8.814018324,8.814018046,111.7579208,111.7579208,111.7579229,trig,R-3,24.0000717,-5.951899718,-2.729223522,0.092448487,FALSE,2.500295012,3.2182,FALSE,477.3069827,,
mp-777522,LiFeF3,10,Li1 Fe1 F3,7.539563428,7.539563428,5.022894,90,90,155.8069085,ortho,Cmc2_1,8.0000681,-6.021427504,-2.798751308,0.022920701,FALSE,3.39966083,3.467,FALSE,117.0124833,,
mp-777622,LiFeF3,20,Li1 Fe1 F3,5.272201,5.367768327,10.05507842,95.35879639,100.3934179,118.9114997,tri,P1,16,-5.992816038,-2.770139842,0.051532167,FALSE,3.321182474,3.4526,FALSE,239.5548929,,
mp-777672,LiFeF3,10,Li1 Fe1 F3,3.235396,6.303753058,6.304775741,70.40473938,89.80160648,89.81444461,ortho,Amm2,7.9999212,-5.975201605,-2.752525409,0.0691466,FALSE,3.283862675,3.2093,TRUE,121.1386697,,
mp-777683,LiFeF3,80,Li1 Fe1 F3,10.57564346,10.57564346,10.57564346,108.7261164,108.7261164,110.9719326,tet,I4_1/a,64.000334,-5.935950602,-2.713274406,0.108397603,FALSE,3.49690183,3.1492,FALSE,910.0690275,,
mp-777888,LiFeF3,20,Li1 Fe1 F3,6.105144,6.111730824,6.126761908,90.09645642,90.0485448,90.17288889,trig,R3,16.0000001,-6.008078518,-2.785402322,0.036269687,FALSE,3.480241645,3.4167,FALSE,228.6063995,,
mp-777899,LiFeF3,20,Li1 Fe1 F3,3.997998,6.467314,9.913151,90,90,90,ortho,Pnma,15.9996135,-5.977178673,-2.754502477,0.067169532,FALSE,3.103984486,3.4736,FALSE,256.3174898,,
mp-780639,LiFeF3,10,Li1 Fe1 F3,7.407518,3.205213,4.94479633,89.94438198,90,90,mono,P2_1/m,7.9999924,-6.012686197,-2.790010001,0.031662008,FALSE,3.38836333,3.288,TRUE,117.402627,,
mp-780803,LiFeF3,80,Li1 Fe1 F3,5.652553,9.138324,19.704906,90,90,90,ortho,Pbca,63.9999985,-6.005163933,-2.782487737,0.039184272,FALSE,3.126599197,3.4099,FALSE,1017.854175,,
mp-1185320,LiFeO3,5,Li1 Fe1 O3,3.776936,3.776936,3.776936,90,90,90,cubic,Pm-3m,4.7017182,-6.294544592,-1.249979174,0.314812976,FALSE,3.414350063,0,FALSE,53.87891946,,
mp-752521,LiFeO3,20,Li1 Fe1 O3,4.914265618,4.914265618,9.708865561,86.19702507,86.19702507,118.4474645,mono,C2/c,12.0000846,-6.462050524,-1.417485106,0.147307044,FALSE,3.599698685,0.3333,TRUE,204.4187674,,
mp-752790,LiFeO3,10,Li1 Fe1 O3,6.615945257,6.615945257,5.991670238,76.7610432,76.7610432,25.13909724,mono,C2/m,5.9999004,-6.437056763,-1.392491345,0.172300805,FALSE,3.397188264,0.1985,FALSE,108.3022063,,
mp-756941,LiFeO3,20,Li1 Fe1 O3,4.90058,4.972526,8.119357,90,90,90,ortho,Pnna,12.082027,-6.46091334,-1.416347921,0.148444229,FALSE,3.719124625,0,FALSE,197.8546143,,
mp-760833,LiFeO3,60,Li1 Fe1 O3,8.69735631,8.69735631,9.89540604,82.35823657,82.35823657,58.94605295,mono,Cm,36.0033893,-6.478154223,-1.433588804,0.131203345,FALSE,3.483427483,0.3066,FALSE,633.7258104,,
mp-761189,LiFeO3,10,Li1 Fe1 O3,5.79940734,5.79940734,6.194660015,72.88444898,72.88444898,29.07169064,mono,C2/m,8.0004517,-6.177499294,-1.132933876,0.431858274,FALSE,3.81490101,0,FALSE,96.44365165,,
mp-28327,LiGaBr3,20,Li1 Ga1 Br3,6.590375716,7.98662599,10.43678705,90,90,93.48762418,mono,P2_1/m,0,-3.389012248,-1.41944055,0,TRUE,3.832457538,2.9955,FALSE,548.3214908,,
mp-29344,LiGaCl3,40,Li1 Ga1 Cl3,6.1298285,9.67455319,15.08643494,90,90,90,ortho,Pnma,0,-7.96632655,-1.508966739,0,TRUE,2.717558422,3.7633,FALSE,894.6761597,,
mp-29345,LiGaI3,20,Li1 Ga1 I3,11.46892782,7.205198266,8.49154513,87.90341096,90,90,mono,P2_1/m,0,-2.908582622,-1.006771275,0,TRUE,4.332306236,2.2732,FALSE,701.2367235,,
mp-1185401,LiGdO3,5,Li1 Gd1 O3,3.703512,3.703512,3.703512,90,90,90,cubic,Pm-3m,5.0028096,-8.42768986,-2.261904236,0.353630917,FALSE,6.936351683,0,FALSE,50.79737479,,
mp-1185303,LiGeO3,5,Li1 Ge1 O3,3.727265,3.727265,3.727265,90,90,90,cubic,Pm-3m,0.0641209,-5.94324491,-1.668078163,0.373687681,FALSE,4.091270161,0,FALSE,51.78104534,,
mp-973818,LiHoO3,5,Li1 Ho1 O3,3.66306,3.66306,3.66306,90,90,90,cubic,Pm-3m,1.9973634,-6.51461901,-2.244521941,0.437087038,FALSE,7.428173324,0,FALSE,49.15097045,,
mp-1080052,LiIO3,10,Li1 I1 O3,5.698764525,5.698764525,3.543238,90,90,120.0000061,hex_,P6_3/mmc,0.0016749,-4.173756575,-0.518392876,0.867518993,FALSE,6.060171668,0,FALSE,99.6534536,,
mp-1180548,LiIO3,10,Li1 I1 O3,6.721816,6.605730073,4.181631,90,90,120.5830502,ortho,Cmcm,0.0007994,-4.702256962,-1.046893263,0.339018606,FALSE,3.778114943,2.5038,TRUE,159.8461257,,
mp-22955,LiIO3,10,Li1 I1 O3,5.451286393,5.452365867,5.091213541,90.00528201,90.00709659,120.0017041,hex_,P6_3,0,-5.040410448,-1.385046749,0.00086512,FALSE,4.608385641,3.6861,FALSE,131.0474173,,
mp-22994,LiIO3,20,Li1 I1 O3,5.18097706,5.8027117,9.33360494,90,90,90,ortho,Pna2_1,0,-5.039608833,-1.384245134,0.001666735,FALSE,4.304425532,3.6546,FALSE,280.6028501,,
mp-23384,LiIO3,40,Li1 I1 O3,9.57814654,9.57814654,6.18228917,90,90,90,tet,P4_2/n,0,-5.041275569,-1.385911869,0,TRUE,4.259170276,3.7886,FALSE,567.1687178,,
mp-545343,LiIO3,10,Li1 I1 O3,5.23084555,5.23084555,4.811755,90,90,119.9999943,hex_,P6_322,3.96E-05,-4.790766707,-1.135403008,0.250508861,FALSE,5.296626197,0,FALSE,114.0191914,,
mp-555562,LiIO3,40,Li1 I1 O3,9.977056,9.977056,6.772338,90,90,90,tet,P4_2/n,0,-4.893201819,-1.23783812,0.148073749,FALSE,3.583387937,3.5742,FALSE,674.1296747,,
mp-1185357,LiLaO3,5,Li1 La1 O3,3.822632,3.822632,3.822632,90,90,90,cubic,Pm-3m,1.9983233,-6.721507272,-2.383744675,0.222049041,FALSE,5.762560372,0,FALSE,55.858269,,
mp-976331,LiLuO3,5,Li1 Lu1 O3,3.629798,3.629798,3.629798,90,90,90,cubic,Pm-3m,2.0001168,-6.447261758,-2.192363091,0.537357951,FALSE,7.982747817,0,FALSE,47.82416224,,
mp-23736,LiMgH3,10,Li1 Mg1 H3,5.25139063,5.251390193,5.251390273,55.93017213,55.93017619,55.93017349,trig,R3c,0,-3.103539746,-0.358561306,0.008794132,FALSE,1.227173874,0.0004,TRUE,92.74378492,,
mp-1185356,LiMgO3,5,Li1 Mg1 O3,3.96983,3.96983,3.96983,90,90,90,cubic,Pm-3m,3,-4.987464342,-1.310809163,0.580104923,FALSE,2.103298222,0,FALSE,62.56273529,,
mp-1176630,LiMnF3,20,Li1 Mn1 F3,6.787936006,6.787936006,5.571834124,82.68957354,82.68957354,85.85145478,mono,C2/c,20.0002517,-6.37883567,-3.017760658,0.029746814,FALSE,3.13127434,3.6287,FALSE,252.1597565,,
mp-1176631,LiMnF3,10,Li1 Mn1 F3,3.258142,4.91663,7.672981,90,90,90,ortho,Pmma,10.0000001,-6.374038946,-3.012963934,0.034543538,FALSE,3.211923863,0.0158,FALSE,122.9140865,,
mp-1176632,LiMnF3,20,Li1 Mn1 F3,5.382932,5.465607,7.962184,90,90,90,ortho,Pnma,20.0028118,-6.364553785,-3.003478773,0.044028699,FALSE,3.370601358,0,FALSE,234.2553424,,
mp-1176634,LiMnF3,10,Li1 Mn1 F3,6.048613229,6.048613229,5.477723,90,90,126.3189031,ortho,Cmc2_1,9.999847,-6.321410674,-2.960335662,0.08717181,FALSE,2.444916856,3.8619,TRUE,161.4740749,,
mp-1176635,LiMnF3,10,Li1 Mn1 F3,5.06220146,5.06220146,7.106968,90,90,145.1813238,ortho,Cmcm,10.0000001,-6.341437138,-2.980362126,0.067145346,FALSE,3.796486691,4.4878,FALSE,103.9884292,,
mp-1176636,LiMnF3,20,Li1 Mn1 F3,6.410968119,6.410968119,6.479826,90,90,107.6523787,ortho,Cmcm,20.0004577,-6.332934343,-2.97185933,0.075648142,FALSE,3.111234016,3.5585,FALSE,253.7839876,,
mp-1371141,LiMnF3,30,Li1 Mn1 F3,5.937597389,5.937597389,11.67697,90,90,119.9999932,trig,P3c1,30,-6.376203399,-3.015128387,0.032379085,FALSE,3.32204749,3.8917,TRUE,356.5187031,,
mp-752829,LiMnF3,10,Li1 Mn1 F3,5.662211134,5.662211134,5.662211392,56.61427416,56.61427416,56.61428497,trig,R-3,9.9995206,-6.368059022,-3.00698401,0.040523462,FALSE,3.336517459,3.7865,FALSE,118.3241785,,
mp-752938,LiMnF3,10,Li1 Mn1 F3,5.829704707,5.829704707,5.829704483,55.15543882,55.15543882,55.15544207,trig,R-3c,10.0192488,-6.374343016,-3.013268004,0.034239468,FALSE,3.175743147,3.2439,FALSE,124.3144263,,
mp-753025,LiMnF3,20,Li1 Mn1 F3,5.425869777,5.425869777,10.485407,90,90,119.9999973,hex_,P6_322,20.0000001,-6.324031041,-2.962956029,0.084551443,FALSE,2.953535714,3.5423,FALSE,267.3342907,,
mp-754676,LiMnF3,10,Li1 Mn1 F3,5.202465378,5.202465378,4.861054,90,90,119.9999921,hex_,P6_322,9.9999775,-6.383962293,-3.022887281,0.024620191,FALSE,3.464873557,3.6507,FALSE,113.9408642,,
mp-754770,LiMnF3,20,Li1 Mn1 F3,10.224994,3.803119,6.945255123,87.3230362,90,90,mono,P2_1/c,20.0005821,-6.337088572,-2.97601356,0.071493912,FALSE,2.92671144,3.515,FALSE,269.7844975,,
mp-756130,LiMnF3,20,Li1 Mn1 F3,5.412977603,5.412977603,9.861305,90,90,119.9999952,trig,P-31c,0,-6.342193986,-2.981118973,0.066388499,FALSE,3.155436109,3.6046,FALSE,250.2289218,,
mp-757275,LiMnF3,40,Li1 Mn1 F3,10.186736,7.133177,7.88107071,65.52644829,90,90,mono,P2_1/c,40.0003328,-6.332217217,-2.971142205,0.076365267,FALSE,3.029768188,3.5688,TRUE,521.2157011,,
mp-758456,LiMnF3,10,Li1 Mn1 F3,5.176898083,5.176898083,7.718202,90,90,145.5998711,ortho,Cmcm,10,-6.306377044,-2.945302032,0.10220544,FALSE,3.378212916,3.5564,FALSE,116.8637671,,
mp-758779,LiMnF3,30,Li1 Mn1 F3,5.936964,5.938230033,11.6769705,89.97098302,90.08854694,119.9877452,trig,P3,29.9972445,-6.376579277,-3.015504265,0.032003207,FALSE,3.321642049,3.8879,TRUE,356.5622199,,