mp_id,formula,sites,composition,a_edge (angstrom),b_edge (angstrom),c_edge (angstrom),alpha_ang (deg),beta_ang (deg),gamma_ang (deg),crystal_system,space_group,total_magnetisation (bohr),energy_per_atom (eV/atom),formation_energy (eV/atom),energy_above_hull (eV/atom),stable,density (g/cc),band_gap (eV),direct_bandgap,volume (cubic-angstrom),bulk_modulus (GPa),shear_modulus (GPa)
mp-867749,CaBiO3,10,Ca1 Bi1 O3,6.166580149,6.166580149,6.166580017,57.5740068,57.5740068,57.57401102,trig,R-3,9.76E-05,-6.391285753,-2.243382312,0.020840419,FALSE,6.301221215,0.0804,FALSE,156.5645999,,
mp-1079918,CaCO3,10,Ca1 C1 O3,3.833378826,5.029813997,6.52339007,95.89062447,106.0612031,90.33384171,tri,P-1,0,-7.896950882,-2.681321205,0.006686684,FALSE,2.766424135,4.8573,FALSE,120.1538155,,
mp-1188902,CaCO3,20,Ca1 C1 O3,6.206725723,6.436406303,6.431665879,93.83778905,106.7186654,106.1750762,tri,P-1,0,-7.900906734,-2.685277056,0.002730833,FALSE,2.849567289,5.0381,FALSE,233.2960631,,
mp-1194399,CaCO3,30,Ca1 C1 O3,7.12538187,7.12538187,9.413902439,68.34036705,68.34036705,60.54706716,mono,C2/c,0,-7.896338674,-2.680708997,0.007298892,FALSE,2.650261143,4.9216,FALSE,376.2607499,,
mp-1197230,CaCO3,50,Ca1 C1 O3,6.393639,7.697011568,12.74171304,93.77095471,98.92079031,106.2213743,tri,P-1,8.83E-05,-7.879239358,-2.663609681,0.024398208,FALSE,2.812856963,4.9254,FALSE,590.851969,,
mp-1197939,CaCO3,90,Ca1 C1 O3,7.228084,7.26345356,26.00444062,82.20230341,82.35132484,60.19834816,tri,P-1,0.002276,-7.895481444,-2.679851767,0.008156122,FALSE,2.556200125,4.9564,FALSE,1170.318281,,
mp-2717324,CaCO3,15,Ca1 C1 O3,4.997993422,4.997993422,8.595774498,89.51617991,89.51617991,59.76450852,trig,P321,0,-7.895151063,-2.679521385,0.008486503,FALSE,2.687798127,4.9875,FALSE,185.5030024,,
mp-3205,CaCO3,10,Ca1 C1 O3,4.343253,4.961191,5.140678,90,90,90,ortho,Pmmn,0.0003809,-7.734772092,-2.519142415,0.168865474,FALSE,3.00078482,4.2755,FALSE,110.7698269,"{'voigt': 81.351, 'reuss': 51.14, 'vrh': 66.245}","{'voigt': -7.697, 'reuss': 24.312, 'vrh': 8.308}"
mp-3953,CaCO3,10,Ca1 C1 O3,6.358447833,6.358447249,6.35844589,46.37140907,46.3714226,46.37141314,trig,R-3c,0,-7.903637566,-2.688007889,0,TRUE,2.703519701,4.9995,FALSE,122.9495072,"{'voigt': 78.414, 'reuss': 72.048, 'vrh': 75.231}","{'voigt': 36.625, 'reuss': 29.739, 'vrh': 33.182}"
mp-4626,CaCO3,20,Ca1 C1 O3,5.016055,5.812071,8.034798,90,90,90,ortho,Pnma,0.0045691,-7.879283517,-2.663653839,0.02435405,FALSE,2.83803772,4.1871,FALSE,234.2438317,"{'voigt': 72.901, 'reuss': 69.618, 'vrh': 71.259}","{'voigt': 34.766, 'reuss': 31.599, 'vrh': 33.183}"
mp-548403,CaCO3,10,Ca1 C1 O3,5.41857184,5.41857184,3.78627,90,90,109.5661688,ortho,C222_1,0.0001961,-7.593784954,-2.378155277,0.309852612,FALSE,3.173265881,5.7242,FALSE,104.748996,"{'voigt': 74.477, 'reuss': 71.043, 'vrh': 72.76}","{'voigt': -58.258, 'reuss': -1.73, 'vrh': -29.994}"
mp-553939,CaCO3,20,Ca1 C1 O3,4.43217633,6.59314591,8.51392996,90,90,90,ortho,Pnma,0,-7.890947636,-2.675317959,0.01268993,FALSE,2.672062035,4.7183,TRUE,248.7939356,"{'voigt': 75.827, 'reuss': 69.416, 'vrh': 72.622}","{'voigt': 33.1, 'reuss': 25.917, 'vrh': 29.508}"
mp-556235,CaCO3,20,Ca1 C1 O3,5.02851577,6.341896957,8.034803837,72.94075117,90,90,mono,P2_1/c,0,-7.902769873,-2.687140196,0.000867693,FALSE,2.71389657,5.0106,FALSE,244.9587937,,
mp-560265,CaCO3,90,Ca1 C1 O3,7.283349892,7.283349892,25.567819,90,90,119.999999,hex_,P6_522,0.0407455,-7.895569251,-2.679939574,0.008068315,FALSE,2.546901643,4.9434,FALSE,1174.590995,,
mp-561412,CaCO3,15,Ca1 C1 O3,5.040837189,5.040837189,8.744577876,89.3545317,89.3545317,59.59667762,mono,C2,0.0002791,-7.896440147,-2.680810469,0.007197419,FALSE,2.601889128,4.9726,FALSE,191.627928,,
mp-641635,CaCO3,20,Ca1 C1 O3,3.633017,7.76828,10.858715,90,90,90,ortho,Pnma,0.0015485,-6.525864744,-1.310235066,1.377772823,FALSE,2.169279895,0.0064,TRUE,306.4578396,,
mp-696740,CaCO3,10,Ca1 C1 O3,4.917823352,4.917823352,5.473712678,71.71716616,71.71716616,79.70982189,mono,C2/c,3.30E-06,-6.030930786,-0.815301109,1.87270678,FALSE,2.796061304,1.5162,FALSE,118.8802314,,
mp-756365,CaCeO3,20,Ca1 Ce1 O3,5.840719,6.06215,8.512602,90,90,90,ortho,Pnma,0.0001463,-8.176925261,-3.619638708,0.059074767,FALSE,5.028686535,2.2817,FALSE,301.4083778,,
mp-1099934,CaCoO3,5,Ca1 Co1 O3,3.76349,3.76349,3.76349,90,90,90,cubic,Pm-3m,2.8843039,-6.677725452,-1.881145529,0.160332857,FALSE,4.579540336,0,FALSE,53.30553411,,
mp-1368304,CaCoO3,20,Ca1 Co1 O3,5.300495,5.412624,7.48887,90,90,90,ortho,Pnma,4.0023788,-6.772877062,-1.976297139,0.065181247,FALSE,4.544787684,0,FALSE,214.8525833,,
mp-1399298,CaCoO3,5,Ca1 Co1 O3,3.176926348,3.176926348,9.795631959,84.06621218,84.06621218,89.9562329,mono,Cm,3.000326,-6.354939556,-1.558359633,0.483118753,FALSE,2.495948804,0,FALSE,97.80442736,,
mp-20772,CaCrO3,20,Ca1 Cr1 O3,5.333433,5.472255,7.54876,90.00058264,90.00018461,90.0004452,ortho,Pnma,8.0012736,-7.918786054,-2.61827998,0.065114058,FALSE,4.222917143,0.4069,FALSE,220.3173952,,
mp-1099873,CaCuO3,5,Ca1 Cu1 O3,3.803636,3.803636,3.803636,90,90,90,cubic,Pm-3m,0.069038,-5.890185774,-1.700447861,0.162602423,FALSE,4.575252255,0,FALSE,55.02966228,,
mp-1001571,CaFeO3,5,Ca1 Fe1 O3,3.83661,3.83661,3.83661,90,90,90,cubic,Pm-3m,4.0602088,-7.2402726,-2.176371779,0.052147252,FALSE,4.231856237,0,FALSE,56.4732736,,
mp-1272846,CaFeO3,20,Ca1 Fe1 O3,5.370985061,5.502777005,7.669601041,89.99956389,88.82901138,90.00498281,mono,P2_1/c,15.999247,-7.287799435,-2.223898614,0.004620417,FALSE,4.218090935,0.0607,FALSE,226.6302731,,
mp-1278982,CaFeO3,20,Ca1 Fe1 O3,5.434047024,6.655142497,6.655120537,70.83781826,90.0010461,90.00102779,ortho,Pmma,16.4426158,-7.23952913,-2.175628309,0.052890722,FALSE,4.204867865,0,FALSE,227.3429585,,
mp-19115,CaFeO3,20,Ca1 Fe1 O3,5.29247074,5.32339252,7.48776665,90.00018674,89.99978053,89.99997506,ortho,Pnma,15.5379632,-7.292419852,-2.228519031,0,TRUE,4.531422983,0,FALSE,210.9595825,,
mp-1227072,CaGa3Pt,5,Ca1 Ga3 Pt1,6.188460025,6.188460025,6.188460025,140.1066656,140.1066656,57.69137786,tet,I4mm,0,-4.086931,-0.654726746,0,TRUE,7.634904639,0,FALSE,96.63892594,,
mp-567485,CaGaAu3,40,Ca1 Ga1 Au3,9.193679421,9.19358456,9.19355357,89.99964078,90.00072392,89.99886314,cubic,Pa-3,1.00E-07,-34.66925953,-0.622069514,0,TRUE,11.97881888,0,FALSE,777.0655254,,
mp-1016884,CaGeO3,5,Ca1 Ge1 O3,3.783237,3.783237,3.783237,90,90,90,cubic,Pm-3m,4.84E-05,-6.873712094,-2.579209944,0.170772001,FALSE,4.928537979,0.5017,FALSE,54.14902551,"{'voigt': 172.617, 'reuss': 172.617, 'vrh': 172.617}","{'voigt': 116.443, 'reuss': 114.12, 'vrh': 115.281}"
mp-17761,CaGeO3,30,Ca1 Ge1 O3,7.314616387,7.557449301,8.147430831,103.4819701,94.72958118,90.10958549,tri,P-1,0,-7.044484095,-2.749981945,0,TRUE,3.669381308,3.4813,FALSE,436.382332,,
mp-554549,CaGeO3,80,Ca1 Ge1 O3,10.79928468,10.79925874,10.79935735,109.1442465,109.1441852,110.1265634,tet,I4_1/a,3.00E-06,-7.030077614,-2.735575464,0.014406482,FALSE,4.404564021,2.6614,FALSE,969.4508786,,
mp-776074,CaGeO3,30,Ca1 Ge1 O3,7.013544285,7.013544285,10.99971611,71.9917261,71.9917261,60.20347937,mono,C2/c,0.0008179,-7.014412666,-2.719910516,0.030071429,FALSE,3.651340809,3.4135,FALSE,438.5384045,,
mp-776086,CaGeO3,30,Ca1 Ge1 O3,6.894019,6.950974516,9.566735408,69.97294637,84.05837557,76.43688648,tri,P-1,0.0006995,-7.023572568,-2.729070418,0.020911528,FALSE,3.825522293,3.58,FALSE,418.5711257,,
mp-8130,CaGeO3,20,Ca1 Ge1 O3,5.33181,5.374453,7.552712,90,90,90,ortho,Pnma,1.15E-05,-6.93710819,-2.64260604,0.107375906,FALSE,4.932384059,2.0287,FALSE,216.4272089,,
mp-1207169,CaH3Pd,5,Ca1 H3 Pd1,3.70671619,3.70671619,3.70671619,90,90,90,cubic,Pm-3m,7.20E-06,-8.642100878,-0.569283975,0,TRUE,4.875124009,0,FALSE,50.92933492,,
mp-1016873,CaHfO3,5,Ca1 Hf1 O3,4.06701021,4.06701021,4.06701021,90,90,90,cubic,Pm-3m,0,-9.022185534,-3.660851149,0.160086914,FALSE,6.580037829,3.6612,FALSE,67.2706754,"{'voigt': 166.721, 'reuss': 166.721, 'vrh': 166.721}","{'voigt': 99.02, 'reuss': 87.825, 'vrh': 93.423}"
mp-754853,CaHfO3,20,Ca1 Hf1 O3,5.54646636,5.72177289,7.94978423,90,90,90,ortho,Pnma,0,-9.182272448,-3.820938063,0,TRUE,7.017975204,4.4855,TRUE,252.2913382,,
mp-1190098,CaHfS3,20,Ca1 Hf1 S3,6.560269,7.017853,9.598232,90,90,90,ortho,Pnma,0.0024856,-17.27985639,-2.020915121,0.037140438,FALSE,4.731246841,1.5238,TRUE,441.8930365,,
mp-1183570,CaHgO3,5,Ca1 Hg1 O3,4.190761,4.190761,4.190761,90,90,90,cubic,Pm-3m,0.0003943,-4.643832956,-1.21200197,0.462410947,FALSE,6.512779156,0,FALSE,73.60014686,,
mp-1183539,CaHoO3,5,Ca1 Ho1 O3,4.311328,4.311328,4.311328,90,90,90,cubic,Pm-3m,0.9998491,-7.185042324,-2.895609852,0.441341795,FALSE,5.242610786,0,FALSE,80.13702099,,
mp-28534,CaInBr3,10,Ca1 In1 Br3,4.26679345,7.372794095,10.88832447,90,90,106.8196805,ortho,Cmcm,0,-3.759740196,-1.82461755,0,TRUE,3.997038781,3.136,FALSE,327.8737264,,
mp-1206105,CaInI3,10,Ca1 In1 I3,7.911487531,7.911487531,11.725476,90,90,146.0575064,ortho,Cmcm,6.98E-05,-3.243666941,-1.376304647,0.021310372,FALSE,4.340760235,2.7835,FALSE,409.7901297,,
mp-1183543,CaInO3,5,Ca1 In1 O3,4.162759,4.162759,4.162759,90,90,90,cubic,Pm-3m,0.6713848,-5.90066144,-1.978930112,0.357897249,FALSE,4.670624192,0,FALSE,72.13462947,,
mp-1016872,CaIrO3,5,Ca1 Ir1 O3,3.953475,3.953475,3.953475,90,90,90,cubic,Pm-3m,0.2740433,-6.932980098,-1.795396683,0.306552834,FALSE,7.532249004,0,FALSE,61.7926742,"{'voigt': 172.529, 'reuss': 172.529, 'vrh': 172.529}","{'voigt': 27.424, 'reuss': 26.417, 'vrh': 26.92}"
mp-1079054,CaIrO3,10,Ca1 Ir1 O3,6.542983356,6.542983356,5.591699,90,90,147.4675195,ortho,Cmcm,2.6640903,-6.91619666,-1.778613245,0.323336272,FALSE,7.230919094,0,FALSE,128.7354492,,
mp-20198,CaIrO3,10,Ca1 Ir1 O3,5.585373796,5.585373796,7.49632,90,90,151.0825096,ortho,Cmcm,0.000811,-6.585585473,-1.448002058,0.653947459,FALSE,8.231860745,0,FALSE,113.0820414,,
mp-4243,CaIrO3,10,Ca1 Ir1 O3,3.182001621,5.150852811,7.32723054,89.99995359,89.99999425,107.9952983,ortho,Cmcm,2.0033388,-7.239532932,-2.101949517,0,TRUE,8.149939013,0,FALSE,114.2187219,"{'voigt': 157.396, 'reuss': 152.289, 'vrh': 154.842}","{'voigt': 76.029, 'reuss': 65.172, 'vrh': 70.601}"
mp-555735,CaIrO3,20,Ca1 Ir1 O3,5.298261924,5.64499097,7.646285572,89.99907159,90.00427439,89.99947027,ortho,Pnma,1.6249161,-7.215037713,-2.077454298,0.024495219,FALSE,8.140938279,0,FALSE,228.6900073,,
mp-1183562,CaLaO3,5,Ca1 La1 O3,4.504726,4.504726,4.504726,90,90,90,cubic,Pm-3m,0.9999999,-7.024558736,-2.667460736,0.593675648,FALSE,4.123203254,0,FALSE,91.41240613,,
mp-1183532,CaMgO3,5,Ca1 Mg1 O3,3.945178,3.945178,3.945178,90,90,90,cubic,Pm-3m,2.0050385,-5.924580274,-2.228589692,0.310670068,FALSE,3.039085753,0,FALSE,61.40444466,,
mp-1017467,CaMnO3,5,Ca1 Mn1 O3,3.801716,3.801716,3.801716,90,90,90,cubic,Pm-3m,3.153875,-7.621263018,-2.418963381,0.116549627,FALSE,4.322045986,0,FALSE,54.94637069,,
mp-1188497,CaMnO3,20,Ca1 Mn1 O3,5.390920286,5.390920286,9.217627,90,90,120.0000035,hex_,P6_3/mmc,12.0013055,-7.618064101,-2.415764464,0.119748544,FALSE,4.094612614,0,TRUE,231.9933662,,
mp-19201,CaMnO3,20,Ca1 Mn1 O3,5.333444,5.398953,7.571465,90,90,90,ortho,Pnma,12.0051162,-7.702737702,-2.500438064,0.035074944,FALSE,4.35703633,0.4686,TRUE,218.0204368,,
mp-989401,CaMoN3,10,Ca1 Mo1 N3,3.535271,4.295757,8.841433,90,90,90,ortho,Pmm2,1.1015774,-8.318599774,-0.745383129,0.046883455,FALSE,4.403590911,0,FALSE,134.2718824,,
mp-989635,CaMoN3,10,Ca1 Mo1 N3,3.704049496,6.379600389,6.404047547,104.0936233,106.8098229,90.00000429,mono,C2/m,0,-8.365483229,-0.792266584,0,TRUE,4.22045319,0.8726,FALSE,140.0983293,"{'voigt': 109.968, 'reuss': 102.988, 'vrh': 106.478}","{'voigt': 48.847, 'reuss': 44.205, 'vrh': 46.526}"
mp-989649,CaMoN3,10,Ca1 Mo1 N3,3.581524,4.403808,10.17818471,79.05024373,90,90,mono,P2/m,1.1298263,-8.338714055,-0.76549741,0.026769174,FALSE,3.751500797,0,FALSE,157.6111729,,
mp-1045305,CaMoO3,20,Ca1 Mo1 O3,5.504775,5.730315556,7.986219259,89.80294805,89.89011788,89.27278409,tri,P-1,7.9998712,-8.148709528,-2.609682927,0.00969481,FALSE,4.852260632,1.1411,FALSE,251.8958582,,
mp-19012,CaMoO3,20,Ca1 Mo1 O3,5.42516888,5.631893148,7.807307135,89.99840329,90,90,ortho,Pnma,7.9962501,-8.152042065,-2.613015464,0.006362273,FALSE,5.12384772,1.1316,FALSE,238.5442392,,
mp-607467,CaMoO3,20,Ca1 Mo1 O3,5.526326,5.750526,7.915666603,89.38257035,90,90,mono,P2_1/c,8.0000755,-8.158404337,-2.619377736,0,TRUE,4.859133129,1.105,TRUE,251.5395902,,
mp-1106358,CaNCl3,20,Ca1 N1 Cl3,7.547444,7.846647,9.042313,90,90,90,ortho,Pnma,0.0029269,-7.783891576,-0.859019364,0.729361278,FALSE,1.990069331,1.4827,TRUE,535.5050253,,
mp-4957,CaNbO3,20,Ca1 Nb1 O3,5.558866,5.716317,7.983121,90,90,90,ortho,Pnma,0.0079962,-8.547165728,-3.157008141,0.058931001,FALSE,4.738824684,0,FALSE,253.6735706,,
mp-1207078,CaNiH3,5,Ca1 Ni1 H3,3.50426521,3.50426521,3.50426521,90,90,90,cubic,Pm-3m,1.00E-07,-4.15538169,-0.561134515,0,TRUE,3.928127553,0,FALSE,43.03193756,,
mp-1368210,CaNiO3,20,Ca1 Ni1 O3,5.366558,5.410364,7.553309,90,90,90,ortho,Pnma,0.0200601,-6.295551389,-1.769627474,0.055805265,FALSE,4.445141965,0,FALSE,219.3105701,,
mp-754103,CaNiO3,10,Ca1 Ni1 O3,4.788972,5.195016148,5.195016,60.00000094,90,90,hex_,P6_3mc,2.00E-07,-6.278679832,-1.752755917,0.072676821,FALSE,4.354802653,1.2293,FALSE,111.930057,,
mp-1016900,CaOsO3,5,Ca1 Os1 O3,3.952163,3.952163,3.952163,90,90,90,cubic,Pm-3m,1.0544156,-7.591910918,-1.976540853,0.256620676,FALSE,7.48630359,0,FALSE,61.73117507,"{'voigt': 190.541, 'reuss': 190.541, 'vrh': 190.541}","{'voigt': 42.771, 'reuss': 33.999, 'vrh': 38.385}"
mp-1213970,CaOsO3,20,Ca1 Os1 O3,5.389272,5.638784,7.759873,90,90,90,ortho,Pnma,2.3866167,-7.761224284,-2.145854219,0.08730731,FALSE,7.839020401,0,FALSE,235.8143206,,
mp-9789,CaPS3,20,Ca1 P1 S3,6.579950775,7.32515142,9.213030585,90,92.03948297,90,mono,P2_1/c,0,-9.265458472,-1.23638502,0,TRUE,2.503227022,3.0848,TRUE,443.7788177,,
mp-11007,CaPSe3,20,Ca1 P1 Se3,6.909170598,7.58328821,9.685920495,90,92.02960714,90,mono,P2_1/c,0,-12.84699504,-1.051984898,0,TRUE,4.032846887,2.1335,FALSE,507.1679982,,
mp-20079,CaPbO3,20,Ca1 Pb1 O3,5.67798819,5.92801194,8.17824295,90,90,90,ortho,Pnma,0,-6.285639986,-2.173213993,0.002454473,FALSE,7.12482119,0.9332,FALSE,275.2729661,,
mp-12572,CaPd3C,5,Ca1 Pd3 C1,4.281632,4.281632,4.281632,90,90,90,cubic,Pm-3m,4.12E-05,-5.548325868,-0.193543707,0.230974914,FALSE,7.856027456,0,FALSE,78.49247309,,
mp-756708,CaPrO3,20,Ca1 Pr1 O3,6.1052,6.322415,8.446265,90,90,90,ortho,Pnma,3.9994326,-7.341417979,-3.012427108,0.175380001,FALSE,4.665157858,0.0195,FALSE,326.0225186,,
mp-4784,CaPtO3,10,Ca1 Pt1 O3,3.149575091,5.196789837,7.36890555,89.99999908,90.0000026,107.6372847,ortho,Cmcm,0,-6.575624937,-1.991501694,0.010547282,FALSE,8.18146661,1.2953,FALSE,114.9423683,"{'voigt': 148.396, 'reuss': 146.242, 'vrh': 147.319}","{'voigt': 73.095, 'reuss': 63.853, 'vrh': 68.474}"
mp-989606,CaReN3,20,Ca1 Re1 N3,7.343440263,7.343440263,6.214030245,75.07436504,75.07436504,83.70051548,mono,C2/c,0,-8.6288227,-0.735113235,0,TRUE,5.702247562,1.8813,FALSE,312.5301702,,
mp-1016833,CaRhO3,5,Ca1 Rh1 O3,3.954209,3.954209,3.954209,90,90,90,cubic,Pm-3m,1.3301973,-6.678481974,-1.835723821,0.257332476,FALSE,5.129345955,0,FALSE,61.82709777,,
mp-1078659,CaRhO3,10,Ca1 Rh1 O3,3.113141821,5.142154487,7.29758608,90.00054491,90.00018984,107.6181484,ortho,Cmcm,1.9944838,-6.93581445,-2.093056297,0,TRUE,5.69654425,0,FALSE,111.3420909,,
mp-1181917,CaRhO3,20,Ca1 Rh1 O3,5.30813379,5.58872343,7.62858879,90,90,90,ortho,Pnma,3.9806026,-6.910787965,-2.068029812,0.025026485,FALSE,5.605342568,0,FALSE,226.307363,,
mp-1193602,CaRhO3,30,Ca1 Rh1 O3,3.1331254,8.874790776,12.45363577,104.1440927,90,90,mono,P2_1/m,0.1026814,-6.930684087,-2.087925934,0.005130363,FALSE,5.666693199,0,FALSE,335.7858589,,
mp-1016835,CaRuO3,5,Ca1 Ru1 O3,3.929544,3.929544,3.929544,90,90,90,cubic,Pm-3m,1.9167293,-7.286232304,-2.061455217,0.165233398,FALSE,5.176309671,0,FALSE,60.67733083,,
mp-20947,CaRuO3,20,Ca1 Ru1 O3,5.35225118,5.54761917,7.67012603,90,90,90,ortho,Pnma,7.9989245,-7.451465702,-2.226688614,0,TRUE,5.516467738,0,FALSE,227.7433092,,
mp-1340624,CaSbO3,20,Ca1 Sb1 O3,8.156452,5.723962,5.924502994,89.74867931,90,90,mono,P2_1/m,2.14E-05,-6.632514746,-2.436817919,0.110777845,FALSE,5.038992705,0,FALSE,276.5959215,,
mp-1377563,CaSbO3,20,Ca1 Sb1 O3,5.682461,5.900124,8.164977,90,90,90,ortho,Pnma,0.0167741,-6.624212062,-2.428515235,0.119080529,FALSE,5.091396657,0,FALSE,273.7490171,,
mp-1183534,CaScO3,5,Ca1 Sc1 O3,4.084749,4.084749,4.084749,90,90,90,cubic,Pm-3m,1.0012219,-7.706464766,-3.070074366,0.240475434,FALSE,3.241227075,0,FALSE,68.15474942,,
mp-557997,CaSeO3,20,Ca1 Se1 O3,6.393451796,6.694465492,6.80623043,90,90,102.6581409,mono,P2_1/c,0,-6.376005911,-2.306927036,0,TRUE,3.90344177,4.2602,FALSE,284.2313548,,
mp-754140,CaSeO3,20,Ca1 Se1 O3,5.38834087,6.42879274,8.34205588,90,90,90,ortho,Pnma,0,-6.354179966,-2.285101091,0.021825945,FALSE,3.839388938,4.2625,FALSE,288.9732092,,
mp-1068653,CaSi3Ir,5,Ca1 Si3 Ir1,5.762805691,5.762805691,5.762805691,137.3753047,137.3753047,61.8611082,tet,I4mm,0,-6.058008302,-0.634010672,0,TRUE,6.059767464,0,FALSE,86.74361442,,
mp-1069604,CaSi3Pt,5,Ca1 Si3 Pt1,5.759354076,5.759354076,5.759354076,136.9076574,136.9076574,62.58016051,tet,I4mm,0,-17.65388211,-0.684421231,0,TRUE,6.022340465,0,FALSE,88.07321688,"{'voigt': 104.693, 'reuss': 103.143, 'vrh': 103.918}","{'voigt': 48.137, 'reuss': 47.502, 'vrh': 47.82}"
mp-1181886,CaSiO3,20,Ca1 Si1 O3,6.251087412,6.251087412,6.251087412,109.4712206,109.4712206,109.4712206,cubic,Im-3,0,-7.659261848,-3.204301662,0.243746552,FALSE,4.103242866,3.5566,FALSE,188.0376543,,
mp-17552,CaSiO3,30,Ca1 Si1 O3,6.909451753,6.909451753,10.61770469,71.70554429,71.70554429,60.25371636,mono,C2/c,0.0008849,-7.882680439,-3.427720254,0.020327961,FALSE,2.822143676,4.7336,FALSE,410.0947288,,
mp-3382,CaSiO3,10,Ca1 Si1 O3,5.092994,5.092994,3.624191,90,90,90,tet,P4/mbm,1.50E-06,-7.659278372,-3.204318187,0.243730028,FALSE,4.103785435,3.5146,FALSE,94.00639676,"{'voigt': 215.173, 'reuss': 215.043, 'vrh': 215.108}","{'voigt': 156.808, 'reuss': 132.558, 'vrh': 144.683}"
mp-3387,CaSiO3,10,Ca1 Si1 O3,5.115179346,5.115179346,5.115179346,120.4727606,120.4727606,89.18308661,tet,I4/mcm,0,-7.661693698,-3.206733513,0.241314702,FALSE,4.106169038,3.6891,TRUE,93.95182669,"{'voigt': 214.907, 'reuss': 214.874, 'vrh': 214.891}","{'voigt': 127.585, 'reuss': 117.164, 'vrh': 122.375}"
mp-4356,CaSiO3,20,Ca1 Si1 O3,6.250552208,6.250552208,6.250552208,109.4712206,109.4712206,109.4712206,cubic,Im-3,0,-7.659303525,-3.20434334,0.243704875,FALSE,4.104296977,3.5299,FALSE,187.9893604,,
mp-4428,CaSiO3,30,Ca1 Si1 O3,6.740481,6.786039015,9.41212948,69.27390832,83.66219587,75.81084709,tri,P-1,4.80E-06,-7.880057129,-3.425096944,0.022951271,FALSE,2.965709944,4.7337,TRUE,390.2425616,"{'voigt': 78.325, 'reuss': 75.172, 'vrh': 76.748}","{'voigt': 42.776, 'reuss': 36.854, 'vrh': 39.815}"
mp-4429,CaSiO3,30,Ca1 Si1 O3,7.084383563,7.325270901,7.933160089,103.3979812,95.28069284,90.04923166,tri,P-1,0,-7.9030084,-3.448048215,0,TRUE,2.902926206,4.8413,FALSE,398.6826269,"{'voigt': 93.408, 'reuss': 91.691, 'vrh': 92.549}","{'voigt': 49.832, 'reuss': 45.415, 'vrh': 47.623}"
mp-4853,CaSiO3,20,Ca1 Si1 O3,6.249192301,6.249192301,6.249192301,109.4034919,109.4034919,109.6067632,tet,I4/mmm,0.000331,-7.659283792,-3.204323607,0.243724608,FALSE,4.106994251,3.7242,FALSE,187.8658981,,
mp-5096,CaSiO3,10,Ca1 Si1 O3,5.098644724,5.098644724,5.098644724,119.929382,119.6868353,90.33281573,ortho,Imma,0,-7.661885077,-3.206924892,0.241123323,FALSE,4.104358864,3.6753,TRUE,93.99326291,,
mp-560885,CaSiO3,20,Ca1 Si1 O3,5.101694,5.115749,7.206447,90,90,90,ortho,Pnma,0,-7.661765491,-3.206805305,0.241242909,FALSE,4.10229811,3.7183,TRUE,188.0809592,,
mp-561086,CaSiO3,60,Ca1 Si1 O3,6.917114322,6.917114322,19.79627122,89.67195844,89.67195844,120.1103671,mono,C2/c,0.0001083,-7.882777689,-3.427817504,0.020230711,FALSE,2.825153217,4.708,TRUE,819.3157372,,