mp_id,formula,sites,composition,a_edge (angstrom),b_edge (angstrom),c_edge (angstrom),alpha_ang (deg),beta_ang (deg),gamma_ang (deg),crystal_system,space_group,total_magnetisation (bohr),energy_per_atom (eV/atom),formation_energy (eV/atom),energy_above_hull (eV/atom),stable,density (g/cc),band_gap (eV),direct_bandgap,volume (cubic-angstrom),bulk_modulus (GPa),shear_modulus (GPa)
mp-759023,LiMnF3,80,Li1 Mn1 F3,10.6665149,10.6665149,10.6665149,109.7224179,109.7224179,108.9699858,tet,I4_1/a,79.9966914,-6.346211248,-2.985136235,0.062371237,FALSE,3.380928976,3.4454,FALSE,934.1590796,,
mp-759032,LiMnF3,40,Li1 Mn1 F3,12.016247,5.565437,7.724876114,76.88970606,90,90,mono,P2_1/c,39.9989032,-6.315203459,-2.954128447,0.093379026,FALSE,3.138608698,0,FALSE,503.1410099,,
mp-759042,LiMnF3,40,Li1 Mn1 F3,8.8594,8.8594,6.254912,90,90,90,tet,P4_2/n,39.9989933,-6.330663236,-2.969588223,0.077919249,FALSE,3.216600064,3.2651,FALSE,490.9415901,,
mp-759048,LiMnF3,90,Li1 Mn1 F3,7.0008,8.050822176,21.51586593,82.98214646,82.39544831,88.73692166,tri,P-1,90.0013408,-6.340042525,-2.978967513,0.068539959,FALSE,2.978330221,3.2519,FALSE,1192.989334,,
mp-759093,LiMnF3,20,Li1 Mn1 F3,5.048173,5.385453,9.006966,90,90,90,ortho,Pnna,20.0034563,-6.378996569,-3.017921556,0.029585916,FALSE,3.224496445,3.8236,FALSE,244.8696684,,
mp-759492,LiMnF3,40,Li1 Mn1 F3,9.276248,5.719131,10.28897418,75.03034805,90,90,mono,P2_1/c,40.0055138,-6.368788849,-3.007713837,0.039793635,FALSE,2.994656873,3.7384,FALSE,527.3267747,,
mp-759538,LiMnF3,70,Li1 Mn1 F3,7.00626,7.999028797,16.63921167,91.27387283,96.86143732,91.53134007,tri,P-1,70.000359,-6.337057095,-2.975982083,0.071525389,FALSE,2.986950171,3.3597,FALSE,925.2028507,,
mp-760095,LiMnF3,30,Li1 Mn1 F3,5.328379618,5.328379618,15.385922,90,90,119.9999953,trig,P-3,29.9992905,-6.314641766,-2.953566754,0.093940718,FALSE,3.1307159,2.4262,TRUE,378.3071031,,
mp-762988,LiMnF3,20,Li1 Mn1 F3,7.13482519,7.13482519,6.17613078,65.94312453,65.94312453,66.56361192,mono,Cc,19.9993222,-6.30946701,-2.948391998,0.099115474,FALSE,3.135199363,3.7014,FALSE,251.8440723,,
mp-763003,LiMnF3,30,Li1 Mn1 F3,8.98355855,8.98355855,8.983558464,112.273471,112.273471,112.2734719,trig,R-3,29.9983387,-6.314515203,-2.953440191,0.094067281,FALSE,2.408308101,2.5762,TRUE,491.7859398,,
mp-763149,LiMnF3,20,Li1 Mn1 F3,6.24089,6.24089,6.24089,90,90,90,cubic,P2_13,20.0151153,-6.375878757,-3.014803744,0.032703728,FALSE,3.248308823,3.4382,FALSE,243.0746022,,
mp-763191,LiMnF3,20,Li1 Mn1 F3,7.825820578,7.825820578,7.825820578,144.4611508,109.9119444,81.12396431,ortho,Ibam,20.0011722,-6.305480479,-2.944405466,0.103102006,FALSE,3.093639071,3.5205,FALSE,255.2273736,,
mp-763362,LiMnF3,20,Li1 Mn1 F3,5.258998,5.414067,8.443386,90,90,90,ortho,Pna2_1,19.9989281,-6.330681584,-2.969606572,0.0779009,FALSE,3.284381671,3.6017,TRUE,240.404878,,
mp-764783,LiMnF3,20,Li1 Mn1 F3,5.646784,5.967319,8.7587,90,90,90,ortho,Pnma,20.0003155,-6.31787126,-2.956796247,0.090711225,FALSE,2.675326638,2.6723,FALSE,295.1345693,,
mp-765090,LiMnF3,40,Li1 Mn1 F3,7.730819,8.57623787,8.643438137,83.3627088,112.6577922,112.9787649,tri,P-1,20.0000001,-6.309294974,-2.948219962,0.09928751,FALSE,3.246163595,3.2241,FALSE,486.4704762,,
mp-765457,LiMnF3,20,Li1 Mn1 F3,5.195478,5.977207,8.338164,90,90,90,ortho,Pnma,19.9995612,-6.368790124,-3.007715111,0.039792361,FALSE,3.04931757,2.9514,TRUE,258.9370759,,
mp-774399,LiMnF3,50,Li1 Mn1 F3,7.029579,8.007542145,12.27668265,106.0274798,93.87285877,91.75172213,tri,P-1,49.9929305,-6.329517166,-2.968442153,0.079065319,FALSE,2.982710706,3.5994,FALSE,661.7984887,,
mp-776156,LiMnF3,20,Li1 Mn1 F3,6.208448,6.208448,6.208448,90,90,90,cubic,P2_13,19.9994274,-6.362736642,-3.00166163,0.045845842,FALSE,3.299497105,3.5452,FALSE,239.3035514,,
mp-776951,LiMnF3,20,Li1 Mn1 F3,5.123617,5.45322,7.724588,90,90,90,ortho,Pnma,20.0024638,-6.369409507,-3.008334494,0.039172978,FALSE,3.658405941,4,FALSE,215.8266163,,
mp-777298,LiMnF3,40,Li1 Mn1 F3,5.890761,9.339731,10.068387,90,90,90,ortho,Pbcn,40.0004134,-6.359771784,-2.998696772,0.048810701,FALSE,2.8507637,3.5986,FALSE,553.9437556,,
mp-777352,LiMnF3,80,Li1 Mn1 F3,5.739886,9.314545,19.7168,90,90,90,ortho,Pbca,79.99964,-6.369828216,-3.008753203,0.038754269,FALSE,2.99609475,3.7601,FALSE,1054.147403,,
mp-777355,LiMnF3,40,Li1 Mn1 F3,5.035124,8.902549,10.775429,90,90,90,ortho,Pccn,40.0001332,-6.387215141,-3.026140129,0.021367344,FALSE,3.269397893,3.7031,TRUE,483.013326,,
mp-777655,LiMnF3,20,Li1 Mn1 F3,6.672620233,6.672620233,5.929779909,88.3962488,88.3962488,84.41016818,mono,C2/m,1.00E-07,-6.349935342,-2.988860329,0.058647143,FALSE,3.007085878,3.4841,FALSE,262.5736035,,
mp-777972,LiMnF3,40,Li1 Mn1 F3,5.465863,9.035989,10.052948,90,90,90,ortho,Pna2_1,40.0073808,-6.381201104,-3.020126092,0.02738138,FALSE,3.180526507,3.6182,FALSE,496.5098535,,
mp-778633,LiMnF3,30,Li1 Mn1 F3,7.130119,7.274539051,7.966696267,95.14485351,103.1398985,89.95698015,tri,P-1,29.9980996,-6.342207005,-2.981131993,0.066375479,FALSE,2.955780144,3.707,FALSE,400.6969413,,
mp-778697,LiMnF3,40,Li1 Mn1 F3,5.376671,7.323031,11.205083,90,90,90,ortho,Pnma,0.0007839,-6.355703264,-2.994628252,0.05287922,FALSE,3.579377288,0,FALSE,441.1836538,,
mp-778800,LiMnF3,30,Li1 Mn1 F3,6.578328,6.763391673,8.926425988,90.56612663,107.6583016,98.91742473,tri,P-1,29.995905,-6.332929427,-2.971854415,0.075653057,FALSE,3.173711005,3.7265,FALSE,373.1820764,,
mp-778819,LiMnF3,10,Li1 Mn1 F3,6.41693581,6.41693581,3.242471,90,90,107.538748,ortho,Amm2,9.9999694,-6.333152574,-2.972077562,0.07542991,FALSE,3.10104895,3.4804,FALSE,127.3087571,,
mp-779073,LiMnF3,30,Li1 Mn1 F3,12.14357869,12.14357869,12.14357874,28.48385005,28.48385005,28.48384947,trig,R-3c,29.9970997,-6.354766784,-2.993691771,0.053815701,FALSE,3.290026785,3.795,TRUE,359.9885776,,
mp-779317,LiMnF3,60,Li1 Mn1 F3,7.165301,7.242488,15.56412025,84.10873549,90,90,mono,P2_1/c,20.0000001,-6.342484479,-2.981409466,0.066098006,FALSE,2.948296549,3.7196,FALSE,803.4280426,,
mp-859873,LiMnF3,10,Li1 Mn1 F3,5.907202868,5.907202868,5.897964,90,90,120.0000097,hex_,P6_3/mmc,10,-6.31590179,-2.954826778,0.092680694,FALSE,2.214983123,3.7715,FALSE,178.2364314,,
mp-1120793,LiMnO3,20,Li1 Mn1 O3,5.021823,5.154043,7.076345,90,90,90,ortho,Pnma,8.0004667,-6.874564002,-1.691599767,0.183920014,FALSE,3.984725537,0,FALSE,183.1548559,,
mp-1094130,LiNO3,5,Li1 N1 O3,4.114484898,4.114484898,4.114484876,60.13123032,60.13123032,60.1312389,trig,R-3m,1.1578998,-4.244329518,0.773887207,2.160649706,FALSE,2.317591665,0,FALSE,49.39928036,,
mp-696822,LiNO3,10,Li1 N1 O3,5.135315358,5.135315358,3.950154128,70.42243483,70.42243483,86.90858273,mono,C2/c,0.0001589,-5.306114126,-0.287897401,1.098865098,FALSE,2.481439523,0,FALSE,92.27495521,,
mp-8180,LiNO3,10,Li1 N1 O3,5.6282987,5.628299005,5.628298959,48.85424376,48.85424111,48.8542476,trig,R-3c,0,-6.404979224,-1.386762499,0,TRUE,2.467377583,2.9369,FALSE,92.80084349,,
mp-1078377,LiNbO3,10,Li1 Nb1 O3,5.726535084,5.726535084,5.726535644,54.95948858,54.95948858,54.95949492,trig,R-3,1.21E-05,-8.249632965,-2.878810781,0.020706871,FALSE,4.189015426,3.684,TRUE,117.2129183,,
mp-1196213,LiNbO3,40,Li1 Nb1 O3,6.186678614,8.26576876,9.509339253,90,89.94088038,90,mono,P2_1/c,0,-8.257009209,-2.886187025,0.013330627,FALSE,4.03883873,3.1296,FALSE,486.2850494,,
mp-3731,LiNbO3,40,Li1 Nb1 O3,5.15394329,5.531529306,17.21247029,87.57036457,98.63069517,117.7709908,trig,R3c,0,-8.270339836,-2.899517652,0,TRUE,4.577485852,3.3358,FALSE,429.062362,,
mp-552588,LiNbO3,10,Li1 Nb1 O3,5.543736003,5.543736003,5.543735554,56.7526276,56.7526276,56.75263102,trig,R-3c,8.01E-05,-8.237331804,-2.86650962,0.033008032,FALSE,4.405933344,2.275,FALSE,111.4421587,,
mp-674361,LiNbO3,50,Li1 Nb1 O3,5.249953,5.583396531,21.72670413,94.76912966,90.0166059,117.9780142,tri,P1,9.36E-05,-8.260283419,-2.889461234,0.010056417,FALSE,4.384557292,2.9621,FALSE,559.9273657,,
mp-675069,LiNbO3,70,Li1 Nb1 O3,5.229927,5.579610664,30.29218475,87.37851116,85.05839621,62.10405718,tri,P1,2.71E-05,-8.263480593,-2.892658409,0.006859243,FALSE,4.415984295,3.0192,TRUE,778.319584,,
mp-676694,LiNbO3,60,Li1 Nb1 O3,5.239596,5.584106865,25.95779793,93.00711374,90.00677852,117.9196565,tri,P1,5.53E-05,-8.26232455,-2.891502366,0.008015286,FALSE,4.397739688,2.9794,FALSE,669.898754,,
mp-685413,LiNbO3,130,Li1 Nb1 O3,5.678020059,5.690272697,74.13907331,54.70414115,54.77100111,54.68420879,tri,P1,1.797168,-8.155162132,-2.784339947,0.115177704,FALSE,4.297012015,0,FALSE,1485.471154,,
mp-686057,LiNbO3,40,Li1 Nb1 O3,5.231451,5.581548102,17.45918489,87.64801976,98.60077596,117.8578589,tri,P1,0.0002437,-8.259485733,-2.888663548,0.010854103,FALSE,4.409493063,3.0381,FALSE,445.4087723,,
mp-755559,LiNbO3,10,Li1 Nb1 O3,5.505402268,5.505402268,5.146995968,83.66509198,83.66509198,124.4320474,mono,C2/m,0.0001292,-8.215173666,-2.844351482,0.05516617,FALSE,3.927620523,3.4857,FALSE,125.0137889,,
mp-760701,LiNbO3,20,Li1 Nb1 O3,5.275352384,5.275352384,10.04535152,88.04950148,88.04950148,114.9373197,mono,C2/c,0.0024098,-8.234432636,-2.863610452,0.0359072,FALSE,3.881718348,3.4233,FALSE,252.984209,,
mp-776108,LiNbO3,40,Li1 Nb1 O3,5.302477,5.56891,15.149082,90,90,90,ortho,Pbcm,0.0003313,-8.240503241,-2.869681057,0.029836595,FALSE,4.390481189,2.8678,FALSE,447.3375028,,
mp-1185387,LiNdO3,5,Li1 Nd1 O3,3.772144,3.772144,3.772144,90,90,90,cubic,Pm-3m,1.9996507,-6.60290544,-2.298714777,0.25988815,FALSE,6.162155478,0,FALSE,53.67410237,,
mp-758501,LiNiF3,10,Li1 Ni1 F3,5.448149593,5.448149009,5.448149358,55.21225851,55.2122607,55.21225945,trig,R-3,4.0000001,-7.345646598,-2.597769158,0.018963556,FALSE,4.007619957,5.245,FALSE,101.6220398,,
mp-1185261,LiNiO3,5,Li1 Ni1 O3,3.775145,3.775145,3.775145,90,90,90,cubic,Pm-3m,2.7958472,-5.21204689,-0.705458378,0.502421934,FALSE,3.507124068,0,FALSE,53.80230863,,
mp-1078188,LiOsO3,10,Li1 Os1 O3,5.287630721,5.28763072,5.287631154,57.86462279,57.86462282,57.86462616,trig,R-3c,0.0001113,-7.332257015,-1.736222353,0.008333421,FALSE,8.19039045,0,FALSE,99.41236306,,
mp-1078358,LiOsO3,10,Li1 Os1 O3,5.319329869,5.319329875,5.319329714,56.77908426,56.77908419,56.77908807,trig,R3c,2.29E-05,-7.340590436,-1.744555774,0,TRUE,8.264968193,0,FALSE,98.51533001,,
mp-1202801,LiPO3,100,Li1 P1 O3,5.521558,13.31298,19.66463186,57.25981679,90,90,mono,Pc,0.0002093,-7.135393511,-2.701737629,0.000989664,FALSE,2.346664764,5.5832,TRUE,1215.868853,,
mp-29195,LiPO3,60,Li1 P1 O3,5.30601022,7.947867306,16.90987642,90,90,99.64294315,mono,P2_1/c,0,-7.136383175,-2.702727293,0,TRUE,2.435061438,5.722,FALSE,703.0385066,,
mp-557189,LiPO3,100,Li1 P1 O3,5.512048,13.301205,19.62527469,57.39720559,90,90,mono,P2/c,0.0002154,-7.133872143,-2.700216261,0.002511032,FALSE,2.353890412,5.7828,TRUE,1212.136547,,
mp-1185263,LiPaO3,5,Li1 Pa1 O3,4.31820142,4.31820142,4.31820142,90,90,90,cubic,Pm-3m,0,-8.598911058,-3.339490446,0,TRUE,5.897508832,3.1954,FALSE,80.52091246,,
mp-1185388,LiPmO3,5,Li1 Pm1 O3,3.746129,3.746129,3.746129,90,90,90,cubic,Pm-3m,1.9965288,-6.599003102,-2.298333461,0.287546244,FALSE,6.315370907,0,FALSE,52.57123571,,
mp-1185404,LiPrO3,5,Li1 Pr1 O3,3.790912,3.790912,3.790912,90,90,90,cubic,Pm-3m,1.9971092,-6.607027908,-2.29737244,0.235092001,FALSE,5.969453574,0,FALSE,54.47924864,,
mp-8189,LiReO3,10,Li1 Re1 O3,5.426872181,5.426872181,5.426872058,56.53744386,56.53744386,56.53743752,trig,R3c,0.0003035,-7.945042249,-2.104858231,0.075053481,FALSE,7.702759785,0,FALSE,103.9712251,,
mp-1185420,LiRuO3,5,Li1 Ru1 O3,3.834755,3.834755,3.834755,90,90,90,cubic,Pm-3m,0.0072748,-6.663394638,-1.457952954,0.211082631,FALSE,4.593951863,0,FALSE,56.39139876,,
mp-4995,LiSbO3,20,Li1 Sb1 O3,4.87993988,5.19125198,8.50669695,90,90,90,ortho,Pnna,0,-6.294555521,-2.118194097,0,TRUE,5.446231896,2.1379,TRUE,215.5001331,,
mp-752636,LiSbO3,20,Li1 Sb1 O3,6.020704,6.020704,6.020704,90,90,90,cubic,P2_13,0.0015197,-6.205745034,-2.02938361,0.088810487,FALSE,5.377765286,1.4496,FALSE,218.2437567,,
mp-756951,LiSbO3,10,Li1 Sb1 O3,5.340750793,5.340750793,5.05847015,83.12870703,83.12870703,123.12512,mono,C2/m,0,-6.235983737,-2.059622313,0.058571784,FALSE,5.017345415,2.9459,FALSE,116.9606237,,
mp-770932,LiSbO3,10,Li1 Sb1 O3,6.622148019,5.234383649,9.702363772,86.94645891,42.98349199,51.17114272,mono,C2/m,0,-6.278321591,-2.101960167,0.01623393,FALSE,5.085233538,2.8256,FALSE,115.3991935,,
mp-28835,LiScI3,10,Li1 Sc1 I3,7.485670533,7.485670533,6.70449,90,90,120.0000047,hex_,P-6c2,0.3930634,-3.910419103,-1.34773314,0.047725456,FALSE,4.415889475,0,FALSE,325.3552175,,
mp-1211104,LiSeO3,20,Li1 Se1 O3,5.417166,5.436661,11.534035,90,90,90,ortho,P2_12_12_1,3.9979905,-5.48385317,-1.434109698,0.207841211,FALSE,2.618191499,0.5306,FALSE,339.6922687,,
mp-20747,LiSi3Pd,5,Li1 Si3 Pd1,7.201335587,7.201335587,7.201335587,152.548175,152.548175,39.21332073,tet,I4mm,0.0040671,-4.60680792,0.066143833,0.389178253,FALSE,4.141930275,0,FALSE,79.22672695,,
mp-1185414,LiSiO3,5,Li1 Si1 O3,3.508652,3.508652,3.508652,90,90,90,cubic,Pm-3m,0.0028166,-6.829866492,-2.39424171,0.32128619,FALSE,3.191798937,0,FALSE,43.19374765,,
mp-973136,LiSmO3,5,Li1 Sm1 O3,3.734836,3.734836,3.734836,90,90,90,cubic,Pm-3m,1.9996141,-6.584905318,-2.290626915,0.308178575,FALSE,6.543675364,0,FALSE,52.09722717,,
mp-998230,LiSnCl3,5,Li1 Sn1 Cl3,5.071729819,5.078612021,5.088723777,87.35959264,87.39209998,87.48050394,trig,R3m,0,-3.969960762,-1.677139822,0.020719455,FALSE,2.948082442,0.0003,TRUE,130.6821218,,
mp-998591,LiSnCl3,10,Li1 Sn1 Cl3,6.97080816,6.970807983,7.237700929,61.21250814,61.21250785,60.00000394,trig,R3c,0,-3.980478929,-1.687657989,0.010201288,FALSE,3.043778675,3.4801,FALSE,253.1469663,,
mp-1105216,LiTaO3,10,Li1 Ta1 O3,5.081659416,5.081659416,5.682455,90,90,96.74712372,ortho,Cmcm,0.0006869,-8.701202891,-2.977256206,0.148102564,FALSE,5.375939423,3.7436,FALSE,145.7232609,,
mp-1105280,LiTaO3,20,Li1 Ta1 O3,4.749778,5.117239,8.834571,90,90,90,ortho,Pnma,0,-8.738851444,-3.014904759,0.110454012,FALSE,7.296570199,2.4709,TRUE,214.7308672,,
mp-1105326,LiTaO3,20,Li1 Ta1 O3,4.927793,6.414382,8.548385,90,90,90,ortho,Pnma,3.04E-05,-8.594651954,-2.870705269,0.254653502,FALSE,5.798583202,3.4719,TRUE,270.2037363,,
mp-3666,LiTaO3,10,Li1 Ta1 O3,5.476847657,5.476847759,5.476847362,55.89940507,55.89940795,55.89941377,trig,R3c,0,-8.849305455,-3.12535877,0,TRUE,7.452082825,3.7003,FALSE,105.1248948,,
mp-754345,LiTaO3,10,Li1 Ta1 O3,5.444507,5.444507,3.942623,90,90,90,tet,P4/mbm,4.40E-06,-8.760660486,-3.036713801,0.088644969,FALSE,6.703179903,2.5608,FALSE,116.8698192,,
mp-862870,LiTcO3,5,Li1 Tc1 O3,3.853851,3.853851,3.853851,90,90,90,cubic,Pm-3m,0.0018613,-7.334157064,-1.911468099,0.065270209,FALSE,4.43693588,0,FALSE,57.23804069,"{'voigt': 194.213, 'reuss': 194.213, 'vrh': 194.213}","{'voigt': 89.742, 'reuss': 69.95, 'vrh': 79.846}"
mp-755231,LiTeO3,20,Li1 Te1 O3,5.178121,5.341448,8.960911,90,90,90,ortho,Pnn2,0.0014105,-5.729905143,-1.750682788,0.062716616,FALSE,4.891948409,2.1534,FALSE,247.846827,,
mp-675460,LiTiCl3,5,Li1 Ti1 Cl3,5.05918,5.05918,4.860325,90,90,90,tet,P4/mmm,2.0001388,-8.369009859,-1.612653835,0.202078537,FALSE,2.151293406,0,FALSE,124.4014875,"{'voigt': 35.091, 'reuss': 35.091, 'vrh': 35.091}","{'voigt': 17.905, 'reuss': 14.18, 'vrh': 16.043}"
mp-676210,LiTiCl3,20,Li1 Ti1 Cl3,7.443274488,7.443274488,12.34525996,71.52505696,71.52505696,57.46468224,mono,Cm,1.9992065,-8.476132794,-1.71977677,0.094955602,FALSE,1.991078693,0.0177,FALSE,537.6464541,,
mp-1185236,LiTmO3,5,Li1 Tm1 O3,3.641522,3.641522,3.641522,90,90,90,cubic,Pm-3m,2.0001978,-6.471009634,-2.223948162,0.488917546,FALSE,7.698441212,0,FALSE,48.28906697,,
mp-1181180,LiUO3,10,Li1 U1 O3,16.09011127,6.934066509,8.56040771,143.9992852,160.0177053,30.5897226,ortho,Amm2,2.0000268,-8.749329151,-3.140485973,0.208022928,FALSE,5.858059668,0.3914,FALSE,166.0908285,,
mp-545712,LiUO3,5,Li1 U1 O3,4.276264,4.276264,4.276264,90,90,90,cubic,Pm-3m,1.0000097,-8.748317654,-3.139474476,0.209034425,FALSE,6.22122516,0.4172,FALSE,78.19761854,,
mp-8007,LiUO3,10,Li1 U1 O3,5.88592778,5.885927428,5.885927844,54.84616027,54.8461627,54.84616886,trig,R3c,1.9999999,-8.957352079,-3.348508901,0,TRUE,7.667992251,0.4431,FALSE,126.8871892,,
mp-752607,LiVF3,10,Li1 V1 F3,5.677266128,5.677266128,5.677266101,56.27712628,56.27712628,56.27712873,trig,R-3,5.999992,-6.366718601,-3.021265433,0.045084077,FALSE,3.226501218,2.5457,FALSE,118.245066,,
mp-752619,LiVF3,10,Li1 V1 F3,5.619684,3.269829,6.703650287,75.84122078,90,90,mono,P2_1/m,5.9979824,-6.332621882,-2.987168714,0.079180796,FALSE,3.194216146,2.4089,FALSE,119.4402106,,
mp-752764,LiVF3,10,Li1 V1 F3,5.536337433,5.536337433,5.536336008,55.46044749,55.46044749,55.46044098,trig,R3c,6.0000001,-6.393293879,-3.047840711,0.018508799,FALSE,3.554203279,2.6547,TRUE,107.3427205,,
mp-752911,LiVF3,20,Li1 V1 F3,5.366711,5.455766,7.834296,90,90,90,ortho,Pnma,12.0006725,-6.376011379,-3.030558212,0.035791299,FALSE,3.326449516,2.6241,TRUE,229.3844218,,
mp-753024,LiVF3,10,Li1 V1 F3,5.857937895,5.857937895,5.891491,90,90,119.9999988,hex_,P6_3/mmc,5.9899161,-6.320171929,-2.974718761,0.091630749,FALSE,2.179061461,1.976,FALSE,175.0835652,,
mp-756643,LiVF3,20,Li1 V1 F3,7.220862336,7.220862336,5.865045329,70.14137072,70.14137072,64.4346376,mono,C2/c,12.0000719,-6.311386476,-2.965933308,0.100416202,FALSE,3.020088839,2.4587,FALSE,252.6533951,,
mp-777551,LiVF3,20,Li1 V1 F3,6.166429,6.166429,6.166429,90,90,90,cubic,P2_13,12,-6.374644575,-3.029191407,0.037158103,FALSE,3.254195579,2.8112,TRUE,234.4775169,,
mp-777676,LiVF3,20,Li1 V1 F3,7.256616561,7.256616561,5.782209708,70.99180186,70.99180186,80.27012224,mono,C2/c,12.0000001,-6.341531127,-2.996077959,0.070271551,FALSE,2.810372255,2.489,FALSE,271.5069853,,
mp-777893,LiVF3,40,Li1 V1 F3,5.005388,8.828678,10.675674,90,90,90,ortho,Pccn,23.9988894,-6.390648161,-3.045194993,0.021154518,FALSE,3.234790236,2.0934,TRUE,471.7682711,,
mp-777894,LiVF3,20,Li1 V1 F3,5.011178,5.372419,8.908797,90,90,90,ortho,Pnna,12.0039448,-6.384222199,-3.038769031,0.02758048,FALSE,3.181383968,2.716,FALSE,239.8439504,,
mp-778509,LiVF3,20,Li1 V1 F3,6.175803,6.175803,6.175803,90,90,90,cubic,P2_13,12.0017505,-6.340643328,-2.99519016,0.071159351,FALSE,3.239399826,2.7453,FALSE,235.548478,,
mp-782665,LiVF3,80,Li1 V1 F3,5.724257,9.399066,19.276746,90,90,90,ortho,Pbca,48.000083,-6.358289442,-3.012836275,0.053513236,FALSE,2.942844403,2.5628,FALSE,1037.140391,,
mp-849502,LiVF3,90,Li1 V1 F3,7.030158,8.06741788,21.04280028,83.55320761,82.90641013,86.18551699,tri,P-1,54.0004751,-6.317487077,-2.972033909,0.094315601,FALSE,2.92190663,1.355,FALSE,1175.143863,,
mp-1176521,LiVO3,10,Li1 V1 O3,5.10629112,5.10629112,4.97861532,83.46425112,83.46425112,123.6322543,mono,C2/m,2.00E-07,-7.512539812,-2.345197422,0.082759272,FALSE,3.352181852,0.0002,TRUE,104.8982702,,
mp-19373,LiVO3,20,Li1 V1 O3,6.607989539,6.607989539,5.834650408,73.39932612,73.39932612,78.11142436,mono,C2/c,0,-7.595299084,-2.427956694,0,TRUE,3.033697701,3.0342,FALSE,231.8214352,,
mp-19440,LiVO3,20,Li1 V1 O3,7.648511806,7.648511806,5.797598281,68.56626188,68.56626188,83.53101445,mono,C2/c,0,,,,FALSE,2.393861856,2.8357,FALSE,293.7830992,,
mp-723831,LiVO3,20,Li1 V1 O3,5.68874567,7.46422039,7.464221041,82.97939078,67.98238899,67.98237587,mono,C2/c,0,-7.594536792,-2.427194401,0.000762293,FALSE,2.582351286,2.7113,FALSE,272.3394601,,
mp-754098,LiVO3,10,Li1 V1 O3,6.595424622,6.595424622,6.068163022,76.31625421,76.31625421,25.31002991,mono,C2/m,3.05E-05,-7.483950119,-2.316607729,0.111348965,FALSE,3.211854045,2.0933,FALSE,109.4813377,,
mp-763200,LiVO3,10,Li1 V1 O3,4.950276239,4.950276239,5.366326912,77.40280801,77.40280801,115.8290388,mono,C2,0.0006155,-7.509991776,-2.342649386,0.085307308,FALSE,3.258063583,2.003,FALSE,107.9285498,,
mp-1176510,LiVS3,10,Li1 V1 S3,5.807585,6.486580234,6.670328993,109.8812652,93.71089102,115.0528717,tri,P-1,2.0001581,-5.822289908,-1.14070838,0.102973501,FALSE,2.465479201,0.0399,FALSE,207.5472451,,
mp-976283,LiYO3,5,Li1 Y1 O3,3.687005,3.687005,3.687005,90,90,90,cubic,Pm-3m,2.0010194,-6.881439394,-2.229059918,0.4157053,FALSE,4.765657634,0,FALSE,50.12116761,,