mp_id,formula,sites,composition,a_edge (angstrom),b_edge (angstrom),c_edge (angstrom),alpha_ang (deg),beta_ang (deg),gamma_ang (deg),crystal_system,space_group,total_magnetisation (bohr),energy_per_atom (eV/atom),formation_energy (eV/atom),energy_above_hull (eV/atom),stable,density (g/cc),band_gap (eV),direct_bandgap,volume (cubic-angstrom),bulk_modulus (GPa),shear_modulus (GPa)
mp-21022,Nd3InN,5,Nd3 In1 N1,5.02826716,5.02826405,5.02826405,90,90,90,cubic,Pm-3m,0.0235942,-25.03867119,-1.046397588,0,TRUE,7.334720591,0,FALSE,127.1318878,,
mp-623448,Nd3InN,5,Nd3 In1 N1,6.111999,6.111999,6.111999,90,90,90,cubic,Pm-3m,0.7720531,-22.80408924,1.188184364,2.234581952,FALSE,4.084023636,0,FALSE,228.3230849,,
mp-20808,Nd3PbC,5,Nd3 Pb1 C1,5.88866,5.88866,5.88866,90,90,90,cubic,Pm-3m,0.0284195,-3.882244376,1.566906596,1.909572291,FALSE,5.301577179,0,FALSE,204.1970385,,
mp-1094101,Nd3PbN,5,Nd3 Pb1 N1,5.02007322,5.02007322,5.02007322,90,90,90,cubic,Pm-3m,0.0001266,-31.79683073,-1.063248388,0,TRUE,8.583254653,0,FALSE,126.5115436,,
mp-19778,Nd3PbN,5,Nd3 Pb1 N1,5.898391,5.898391,5.898391,90,90,90,cubic,Pm-3m,0.0001245,-29.58935753,1.144224818,2.207473206,FALSE,5.291532619,0,FALSE,205.2110179,,
mp-20423,Nd3SnC,5,Nd3 Sn1 C1,5.819249,5.819249,5.819249,90,90,90,cubic,Pm-3m,0.0008627,-4.090808924,1.417727005,1.840612416,FALSE,4.747895102,0,FALSE,197.0610633,,
mp-1094085,Nd3SnN,5,Nd3 Sn1 N1,5.00002241,5.00002241,5.00002241,90,90,90,cubic,Pm-3m,3.29E-05,-6.352271716,-1.021813337,0,TRUE,7.511416547,0,FALSE,125.0016808,,
mp-22350,Nd3SnN,5,Nd3 Sn1 N1,5.83455,5.83455,5.83455,90,90,90,cubic,Pm-3m,0.0193352,-4.214031552,1.116426828,2.138240164,FALSE,4.727326529,0,FALSE,198.6195977,,
mp-21854,Nd3TlC,5,Nd3 Tl1 C1,5.825617,5.825617,5.825617,90,90,90,cubic,Pm-3m,0.0001193,-3.573891944,1.607024037,1.830708546,FALSE,5.451905269,0,FALSE,197.7087029,,
mp-22496,Nd3TlN,5,Nd3 Tl1 N1,5.833587,5.833587,5.833587,90,90,90,cubic,Pm-3m,0.7499801,-3.730637422,1.27220101,2.054115963,FALSE,5.446285797,0,FALSE,198.5212666,,
mp-1069375,NdAl3Cu,5,Nd1 Al3 Cu1,6.083480915,6.083480915,6.083480915,139.4664584,139.4664584,58.66430855,tet,I4mm,0,-12.6107715,-0.518551503,0,TRUE,5.089551753,0,FALSE,94.20314628,,
mp-14254,NdAlO3,10,Nd1 Al1 O3,5.282518443,5.282518675,5.282517606,60.0001515,60.00015077,60.00014408,cubic,Pm-3m,1.00E-07,-8.31650052,-3.644979264,0.027490917,FALSE,6.984787973,2.8636,FALSE,104.234019,,
mp-5899,NdAlO3,10,Nd1 Al1 O3,5.285252518,5.285251644,5.285252471,60.57397474,60.57397828,60.57397833,trig,R-3c,0,-8.343991437,-3.672470181,0,TRUE,6.884713762,4.354,FALSE,105.7491346,,
mp-13514,NdBO3,20,Nd1 B1 O3,6.29114009,6.584614101,6.572748449,93.73771251,108.4466441,108.2737855,tri,P-1,0,-8.7238332,-3.465548756,0.001357567,FALSE,5.5930214,5.0694,FALSE,241.1393957,,
mp-7238,NdBO3,20,Nd1 B1 O3,5.0493033,5.72881457,8.09798399,90,90,90,ortho,Pnma,0,-8.725190766,-3.466906322,0,TRUE,5.757600291,4.6987,TRUE,234.2465146,,
mp-10120,NdBPd3,5,Nd1 B1 Pd3,4.383158,4.383158,4.383158,90,90,90,cubic,Pm-3m,0.0001234,-5.955176358,-0.557739431,0.111334662,FALSE,9.353039049,0,FALSE,84.20955608,"{'voigt': 134.869, 'reuss': 134.869, 'vrh': 134.869}","{'voigt': 10.367, 'reuss': -25.971, 'vrh': -7.802}"
mp-11597,NdBPt3,5,Nd1 B1 Pt3,4.02110246,4.02110246,5.08640514,90,90,90,tet,P4mm,1.00E-07,-6.799303336,-0.867115503,0,TRUE,14.94715548,0,FALSE,82.24343257,,
mp-3591,NdBRh3,5,Nd1 B1 Rh3,4.23316728,4.2331642,4.23312733,90,90,90,cubic,Pm-3m,0.727495,-7.404379794,-0.696287231,0,TRUE,10.15218221,0,FALSE,75.85633872,"{'voigt': 174.728, 'reuss': 174.728, 'vrh': 174.728}","{'voigt': 77.258, 'reuss': 72.735, 'vrh': 74.997}"
mp-1188683,NdBS3,20,Nd1 B1 S3,6.01172313,7.59857487,8.92959887,90,90,90,ortho,Pna2_1,0,-6.318623375,-1.546099794,0.000999158,FALSE,4.091180437,2.3963,FALSE,407.9087939,,
mp-975579,NdBeO3,5,Nd1 Be1 O3,3.660158,3.660158,3.660158,90,90,90,cubic,Pm-3m,0.9998389,-7.540602378,-2.870313715,0.26662336,FALSE,6.815388657,0,FALSE,49.03424579,,
mp-974740,NdBiO3,5,Nd1 Bi1 O3,4.435676,4.435676,4.435676,90,90,90,cubic,Pm-3m,3.62E-05,-6.5858118,-1.885398848,0.82623843,FALSE,7.634012602,0,FALSE,87.27290814,"{'voigt': 116.027, 'reuss': 116.027, 'vrh': 116.027}","{'voigt': 38.052, 'reuss': 7.143, 'vrh': 22.598}"
mp-14625,NdCoGe3,5,Nd1 Co1 Ge3,5.771051856,5.771051856,5.771051856,136.3454173,136.3454173,63.44676443,tet,I4mm,3.70E-06,-5.716365034,-0.562235491,0,TRUE,7.734612565,0,FALSE,90.40466037,"{'voigt': 92.979, 'reuss': 92.939, 'vrh': 92.959}","{'voigt': 53.348, 'reuss': 52.965, 'vrh': 53.156}"
mp-20031,NdCoO3,5,Nd1 Co1 O3,3.801945,3.801945,3.801945,90,90,90,cubic,Pm-3m,0.0042463,-7.791900062,-2.442810628,0.078158744,FALSE,7.589361562,0.7914,FALSE,54.95630053,,
mp-22599,NdCoO3,20,Nd1 Co1 O3,5.3544196,5.36020413,7.57320125,90,90,90.00021186,ortho,Pnma,2.00E-07,-7.870058806,-2.520969372,0,TRUE,7.675549837,0,FALSE,217.3567985,,
mp-570956,NdCoSb3,40,Nd1 Co1 Sb3,6.202553,12.147865,12.756951,90,90,90,ortho,Pbcm,0.0020208,-24.59606703,-0.641829573,0.010133488,FALSE,7.856298859,0,FALSE,961.2078928,,
mp-1069204,NdCoSi3,5,Nd1 Co1 Si3,5.602440721,5.602440721,5.602440721,136.9054184,136.9054184,62.58360701,tet,I4mm,0,-14.40829368,-0.613586899,0,TRUE,5.887004648,0,FALSE,81.07545129,,
mp-13008,NdCrGe3,10,Nd1 Cr1 Ge3,6.165282144,6.165282144,5.750085,90,90,120.0000015,hex_,P6_3/mmc,2.8131339,-17.62464431,-0.403187484,0.035463481,FALSE,7.266653481,0,FALSE,189.2826475,"{'voigt': 594966112372.431, 'reuss': -79692237.173, 'vrh': 297443210067.629}","{'voigt': 357006773956.235, 'reuss': 117.217, 'vrh': 178503387036.726}"
mp-19062,NdCrO3,5,Nd1 Cr1 O3,3.90191,3.90191,3.90191,90,90,90,cubic,Pm-3m,3.0000201,-8.851744172,-2.998728589,0.14311416,FALSE,6.826963263,1.904,FALSE,59.40619599,,
mp-19269,NdCrO3,20,Nd1 Cr1 O3,5.42096311,5.53422111,7.71471539,90,90,89.99997866,ortho,Pnma,11.9999999,-8.994858332,-3.141842748,0,TRUE,7.00916742,2.54,TRUE,231.4476989,,
mp-15931,NdCrS3,20,Nd1 Cr1 S3,3.78190129,7.81500959,13.05412393,90,90,90,ortho,Pnma,11.9982644,-7.051867254,-1.684612532,0,TRUE,5.034405358,0,FALSE,385.822398,,
mp-1209908,NdCrSb3,20,Nd1 Cr1 Sb3,6.25507165,6.19324407,13.16302585,90,90,90,ortho,Pbcm,11.5374418,-24.91045425,-0.588394533,0.012437006,FALSE,7.31419661,0,FALSE,509.9248989,,
mp-864797,NdCrSe3,20,Nd1 Cr1 Se3,3.95625873,8.16611691,13.72165637,90,90,90,ortho,Pnma,11.9954599,-6.471282938,-1.48949707,0,TRUE,6.48946066,0,FALSE,443.3092752,,
mp-1173386,NdCuO3,20,Nd1 Cu1 O3,5.33507122,6.34205783,7.17680555,90,90,90,ortho,Pnma,0,-7.125594342,-2.383346919,0,TRUE,6.9965606,0.123,FALSE,242.8295856,,
mp-1180433,NdFeO3,20,Nd1 Fe1 O3,3.513339,6.253102,13.062496,90,90,90,ortho,Pnma,20.0051098,-7.886655667,-2.270245335,0.506160635,FALSE,5.742066332,1.428,TRUE,286.973464,,
mp-20407,NdFeO3,20,Nd1 Fe1 O3,5.46086797,5.6389052,7.77694011,90,90,90,ortho,Pnma,19.9878786,-8.392816302,-2.77640597,0,TRUE,6.880891674,1.7349,FALSE,239.4777805,,
mp-601267,NdFeO3,20,Nd1 Fe1 O3,4.523317,5.125559,12.14826,90,90,90,ortho,Pnma,12.0002389,-7.749117703,-2.132707371,0.643698599,FALSE,5.850562258,0,FALSE,281.6516761,,
mp-1201926,NdFeSb3,40,Nd1 Fe1 Sb3,6.147344,12.133969,12.725729,90,90,90,ortho,Pbcm,0.0329946,-5.725601438,-0.600566965,0.018744907,FALSE,7.912185703,0,FALSE,949.2335248,,
mp-569211,NdFeSb3,60,Nd1 Fe1 Sb3,6.237066,12.709238,18.491927,90,90,90,ortho,Pbcm,0.2146892,-5.708591573,-0.583557101,0.035754771,FALSE,7.685617673,0,FALSE,1465.824657,,
mp-1220217,NdGa3Ag,5,Nd1 Ga3 Ag1,6.133732836,6.133732836,6.133732836,137.3571259,137.3571259,61.88903064,tet,I4mm,0.0009191,-17.51076281,-0.490320011,0.021206872,FALSE,7.318349265,0,FALSE,104.6646046,,
mp-1220156,NdGa3Au,5,Nd1 Ga3 Au1,4.298089558,4.298089928,6.18597648,69.75298233,69.75296865,90.12888273,tet,I4mm,1.00E-07,-4.024417998,-0.599154498,0,TRUE,9.174109757,0,FALSE,99.61985184,,
mp-1220168,NdGa3Cu,5,Nd1 Ga3 Cu1,6.046518446,6.046518446,6.046518446,139.760442,139.760442,58.21721442,tet,I-4m2,0,-15.49339692,-0.574770358,0,TRUE,7.574015489,0,FALSE,91.41430838,,
mp-1220163,NdGa3Ni,5,Nd1 Ga3 Ni1,6.087049592,6.087049592,6.087049592,140.1117794,140.1117794,57.68361684,tet,I-4m2,0.0003841,-4.461892028,-0.535377592,0.044165609,FALSE,7.442556121,0,FALSE,91.94629433,,
mp-1220159,NdGa3Pd,5,Nd1 Ga3 Pd1,6.133838505,6.133838505,6.133838505,139.9066282,139.9066282,57.99509771,tet,I-4m2,0,-4.493589418,-0.687125956,0,TRUE,8.048507631,0,FALSE,94.87067348,,
mp-1220160,NdGa3Pt,5,Nd1 Ga3 Pt1,6.147883693,6.147883693,6.147883693,140.1929162,140.1929162,57.56049986,tet,I-4m2,0,-4.708863812,-0.724150048,0,TRUE,9.646532379,0,FALSE,94.41707543,,
mp-3196,NdGaO3,20,Nd1 Ga1 O3,5.471236,5.615867,7.801683,90,90,90,ortho,Pnma,6.00E-06,-7.581744754,-3.05371946,0.033597413,FALSE,7.258699431,3.4525,FALSE,239.7124343,"{'voigt': 163.048, 'reuss': 160.53, 'vrh': 161.789}","{'voigt': 78.339, 'reuss': 74.825, 'vrh': 76.582}"
mp-9834,NdGaO3,5,Nd1 Ga1 O3,4.563814,4.563814,4.563814,90,90,90,cubic,Pm-3m,1.9978381,-6.149087994,-1.6210627,1.466254173,FALSE,4.576206099,0,FALSE,95.05693542,,
mp-975347,NdGeO3,5,Nd1 Ge1 O3,3.96845,3.96845,3.96845,90,90,90,cubic,Pm-3m,0.0001642,-7.338424784,-2.491413124,0.455508572,FALSE,7.037782721,0,FALSE,62.49751343,"{'voigt': 149.618, 'reuss': 149.618, 'vrh': 149.618}","{'voigt': 70.95, 'reuss': 70.297, 'vrh': 70.624}"
mp-1212693,NdIn3Pt,40,Nd1 In3 Pt1,9.867339,9.867339,9.867339,90,90,90,cubic,Pm-3n,0.0062037,-4.404648899,-0.581288502,0.024338938,FALSE,9.454864983,0,FALSE,960.7273335,,
mp-1186316,NdInO3,5,Nd1 In1 O3,4.155854,4.155854,4.155854,90,90,90,cubic,Pm-3m,1.69E-05,-6.93720197,-2.462961132,0.424846233,FALSE,7.103770978,1.6468,FALSE,71.7762634,,
mp-755138,NdInO3,20,Nd1 In1 O3,5.63595378,5.94569456,8.17509696,90,90,90,ortho,Pnma,0,-7.347325158,-2.87308432,0.014723044,FALSE,7.445036965,2.6533,TRUE,273.9447174,,
mp-1209937,NdLuO3,20,Nd1 Lu1 O3,5.731661,5.979581,8.327143,90,90,90,ortho,Pnma,0,-8.75673631,-3.92999273,0.022672726,FALSE,8.546199069,4.8869,TRUE,285.3955992,,
mp-1080801,NdLuS3,10,Nd1 Lu1 S3,6.558566804,6.558566804,9.46813733,90,90,145.7493798,ortho,Cmcm,0,-20.71380524,-2.393227956,0,TRUE,6.018697699,0.8052,TRUE,229.2172177,,
mp-1205870,NdLuS3,10,Nd1 Lu1 S3,6.653053663,6.653053663,9.866434,90,90,146.9049126,ortho,Cmcm,3.18E-05,-20.57676373,-2.256186449,0.137041507,FALSE,5.785366679,0.7005,FALSE,238.4618327,,
mp-13327,NdLuSe3,10,Nd1 Lu1 Se3,6.828910913,6.828910913,9.91660609,90,90,145.8286919,ortho,Cmcm,0,-24.27357053,-2.187056561,0,TRUE,7.110119241,0.4956,FALSE,259.7445915,,
mp-975521,NdMgO3,5,Nd1 Mg1 O3,3.908802,3.908802,3.908802,90,90,90,cubic,Pm-3m,1.0000316,-7.081664142,-2.833164049,0.277954373,FALSE,6.020972497,0,FALSE,59.7215424,"{'voigt': 139.787, 'reuss': 139.787, 'vrh': 139.787}","{'voigt': 20.888, 'reuss': -49.764, 'vrh': -14.438}"
mp-1232174,NdMgS3,20,Nd1 Mg1 S3,7.808633149,11.612948,7.675800975,90,127.1785527,90,mono,C2/m,3.9996695,-5.283548328,-1.520809098,0.387334056,FALSE,3.170773991,0.2931,FALSE,554.5831205,,
mp-1232282,NdMgSe3,10,Nd1 Mg1 Se3,7.366642325,7.366642325,6.852079782,76.28043122,76.28043122,115.815686,mono,C2/m,0.0001797,-4.750148151,-1.372877775,0.380663732,FALSE,4.495226569,0,FALSE,299.5298955,,
mp-1232357,NdMgSe3,30,Nd1 Mg1 Se3,7.035993,7.035993528,19.649052,90,90,120.0000022,trig,R-3,3.3346116,-4.844966532,-1.467696156,0.285845351,FALSE,4.795014907,0,FALSE,842.4091085,,
mp-1182197,NdMnO3,20,Nd1 Mn1 O3,14.392943,14.078227,19.90936595,87.88079187,90,90,mono,P2_1/c,19.6036159,-4.747233437,1.007575711,3.971054523,FALSE,0.407250354,0,FALSE,4031.418295,,
mp-1189476,NdMnO3,20,Nd1 Mn1 O3,5.499704,5.657811,7.900170967,89.42924992,90,90,mono,P2_1/c,16.0002291,-8.706945591,-2.952136444,0.011342369,FALSE,6.679079913,0,FALSE,245.811781,,
mp-20852,NdMnO3,20,Nd1 Mn1 O3,5.43900702,5.59497621,7.74393852,90,90,90,ortho,Pnma,16.0000003,-8.71828796,-2.963478812,0,TRUE,6.96689994,1.898,TRUE,235.6566827,,
mp-1079171,NdNiGe3,10,Nd1 Ni1 Ge3,11.0492113,11.0492113,4.17058748,90,90,158.4883357,ortho,Cmmm,1.00E-07,-5.481030768,-0.597557233,0,TRUE,7.486044192,0,FALSE,186.7065743,,
mp-22106,NdNiO3,20,Nd1 Ni1 O3,5.38376377,5.38857796,7.604511,90,90,90,ortho,Pnma,3.9998971,-7.503700137,-2.425266711,0,TRUE,7.555034425,0,FALSE,220.6131819,,