mp_id,composition,a_edge (angstrom),b_edge (angstrom),c_edge (angstrom),alpha_ang (deg),beta_ang (deg),gamma_ang (deg),crystal_system,space_group,formation_energy (eV/atom),energy_above_hull (eV/atom),band_gap (eV),A_site,B_site,X_site
mp-504543,Sn1 Pb1 O3,7.606152484,7.606152484,7.606152484,60.0,60.0,60.0,cubic,Fd-3m,-1.722439363,0.155305782,0.0,Sn,Pb,O
mp-978952,Sn1 Pb1 O3,4.127671,4.127671,4.127671,90.0,90.0,90.0,cubic,Pm-3m,-1.760990872,0.116754273,1.0389,Sn,Pb,O
mp-1188095,Sn1 Pb1 S3,3.85485,9.06626,14.432815,90.0,90.0,90.0,ortho,Pnma,-0.731631147,0.007081249,1.0929,Sn,Pb,S
mp-1018636,Sn1 Pd3 C1,4.252861,4.252861,4.252861,90.0,90.0,90.0,cubic,Pm-3m,0.11991452,0.533400364,0.0,Sn,C,Pd
mp-20446,Sn1 Pt3 C1,4.298023,4.298023,4.298023,90.0,90.0,90.0,cubic,Pm-3m,0.343091286,0.644553754,0.0,Sn,C,Pt
mp-1013537,Sr3 As1 N1,5.8,5.8,5.8,90.0,90.0,90.0,cubic,Pm-3m,0.111223138,1.163282138,0.0,As,N,Sr
mp-1013555,Sr3 As1 N1,5.09566939,5.09566939,5.09566939,90.0,90.0,90.0,cubic,Pm-3m,-1.052059,0.0,0.4218,As,N,Sr
mp-1013532,Sr3 As1 P1,5.79,5.79,5.79,90.0,90.0,90.0,cubic,Pm-3m,-0.760770047,0.490716747,0.0,As,P,Sr
mp-1013553,Sr3 As1 P1,5.7,5.7,5.7,90.0,90.0,90.0,cubic,Pm-3m,-0.962671677,0.288815117,0.0,As,P,Sr
mp-1013564,Sr3 Bi1 As1,5.88,5.88,5.88,90.0,90.0,90.0,cubic,Pm-3m,-1.06017849,0.115534189,0.0,Bi,As,Sr
mp-1013705,Sr3 Bi1 As1,6.196805,6.196805,6.196805,90.0,90.0,90.0,cubic,Pm-3m,-0.49084356,0.684869119,0.0,Bi,As,Sr
mp-1013531,Sr3 Bi1 N1,6.23,6.23,6.23,90.0,90.0,90.0,cubic,Pm-3m,0.522713543,1.56567922,0.0,Bi,N,Sr
mp-570008,Sr3 Bi1 N1,5.23493993,5.23493993,5.23493993,90.0,90.0,90.0,cubic,Pm-3m,-1.042965677,0.0,0.2569,Bi,N,Sr
mp-1013530,Sr3 Bi1 P1,6.183845,6.183845,6.183845,90.0,90.0,90.0,cubic,Pm-3m,-0.322144027,0.808740277,0.0,Bi,P,Sr
mp-1013643,Sr3 Bi1 P1,5.776749,5.776749,5.776749,90.0,90.0,90.0,cubic,Pm-3m,-1.086532869,0.044351435,0.0,Bi,P,Sr
mp-1013585,Sr3 Bi1 Sb1,6.163906,6.163906,6.163906,90.0,90.0,90.0,cubic,Pm-3m,-0.667514298,0.310150757,0.0,Bi,Sb,Sr
mp-1013706,Sr3 Bi1 Sb1,6.216867,6.216867,6.216867,90.0,90.0,90.0,cubic,Pm-3m,-0.519670038,0.457995017,0.0,Bi,Sb,Sr
mp-30950,Sr3 Ge1 O1,7.16585385,7.13911044,10.12552174,90.0,90.0,90.0,ortho,Pnma,-1.559018961,0.0,0.3188,Ge,O,Sr
mp-1013536,Sr3 P1 N1,5.67,5.67,5.67,90.0,90.0,90.0,cubic,Pm-3m,0.07293528,1.025654681,0.0,P,N,Sr
mp-1013554,Sr3 P1 N1,5.05920313,5.05920313,5.05920313,90.0,90.0,90.0,cubic,Pm-3m,-0.952719401,0.0,0.5197,P,N,Sr
mp-19944,Sr3 Pb1 O1,5.17250966,5.17250966,5.17250966,90.0,90.0,90.0,cubic,Pm-3m,-1.586021313,0.0,0.0,Pb,O,Sr
mp-1013541,Sr3 Sb1 As1,6.11,6.11,6.11,90.0,90.0,90.0,cubic,Pm-3m,-0.475638621,0.617104965,0.0,Sb,As,Sr
mp-1013561,Sr3 Sb1 As1,5.848444,5.848444,5.848444,90.0,90.0,90.0,cubic,Pm-3m,-0.91120945,0.181534137,0.128,Sb,As,Sr
mp-1013534,Sr3 Sb1 N1,6.221556,6.221556,6.221556,90.0,90.0,90.0,cubic,Pm-3m,0.455086037,1.483031114,0.0,Sb,N,Sr
mp-7752,Sr3 Sb1 N1,5.19496514,5.19496514,5.19496514,90.0,90.0,90.0,cubic,Pm-3m,-1.027945077,0.0,0.2577,Sb,N,Sr
mp-1013535,Sr3 Sb1 P1,6.100651,6.100651,6.100651,90.0,90.0,90.0,cubic,Pm-3m,-0.321517537,0.733077114,0.0,Sb,P,Sr
mp-1013588,Sr3 Sb1 P1,5.74,5.74,5.74,90.0,90.0,90.0,cubic,Pm-3m,-0.958422727,0.096171924,0.3419,Sb,P,Sr
mp-30949,Sr3 Si1 O1,7.15066135,7.13016274,10.10705953,90.0,90.0,90.0,ortho,Pnma,-1.443864567,0.0,0.4234,Si,O,Sr
mp-7961,Sr3 Sn1 O1,5.1518472,5.1518472,5.1518472,90.0,90.0,90.0,cubic,Pm-3m,-1.642535062,0.0,0.0,Sn,O,Sr
mp-979294,Sr1 Ag1 O3,4.110248,4.110248,4.110248,90.0,90.0,90.0,cubic,Pm-3m,-1.386157267,0.113558919,0.0,Sr,Ag,O
mp-1218359,Sr1 Al3 Ag1,4.311460145,4.311459145,6.586643958,70.93354534,70.93354555,90.09816396,tet,I4mm,-0.297251677,0.0,0.0,Sr,Ag,Al
mp-1068011,Sr1 Al1 H3,4.585462,4.585462,4.585462,90.0,90.0,90.0,cubic,Pm-3m,0.233643255,0.69901291,0.0744,Sr,Al,H
mp-978862,Sr1 Al1 O3,3.835761,3.835761,3.835761,90.0,90.0,90.0,cubic,Pm-3m,-3.031678721,0.050849522,0.0,Sr,Al,O
mp-978851,Sr1 As1 O3,3.974879,3.974879,3.974879,90.0,90.0,90.0,cubic,Pm-3m,-2.273695573,0.24607857,0.0,Sr,As,O
mp-1187146,Sr1 Au1 O3,4.13584,4.13584,4.13584,90.0,90.0,90.0,cubic,Pm-3m,-1.420715157,0.27454359,0.0,Sr,Au,O
mp-1189840,Sr1 B1 O3,5.804943,6.846787,7.057235,90.0,90.0,90.0,ortho,Pnma,-2.824387097,0.062468807,0.4524,Sr,B,O
mp-1187143,Sr1 Be1 O3,3.733877,3.733877,3.733877,90.0,90.0,90.0,cubic,Pm-3m,-2.186857816,0.376971985,0.0,Sr,Be,O
mp-29164,Sr1 Bi1 O3,5.954964347,6.14411663,8.505410727,90.0,90.0347993,90.0,mono,P2_1/c,-2.260618635,0.0,0.3106,Sr,Bi,O
mp-28476,Sr1 Bi1 Se3,4.267801,16.126631,33.812572,90.0,90.0,90.0,ortho,P2_12_12_1,-1.295626754,0.0,0.7976,Sr,Bi,Se
mp-1218370,Sr1 C1 O3,4.388278395,4.388278395,4.388278806,72.25939607,72.25939607,72.25939194,trig,R32,-2.667720731,0.031704978,4.5332,Sr,C,O
mp-33746,Sr1 C1 O3,4.371562498,4.371562498,8.370437804,71.76304182,71.76304182,72.89891294,mono,C2/m,-2.663268063,0.036157646,4.2823,Sr,C,O
mp-38035,Sr1 C1 O3,6.916295304,6.916295304,6.916295009,44.68017163,44.68017163,44.68016882,trig,R-3c,-2.6762011,0.023224608,4.6569,Sr,C,O
mp-3822,Sr1 C1 O3,5.11695695,5.98602397,8.43766419,90.0,90.0,90.0,ortho,Pnma,-2.699425708,0.0,4.4416,Sr,C,O
mp-978842,Sr1 Ca1 O3,4.376349,4.376349,4.376349,90.0,90.0,90.0,cubic,Pm-3m,-2.177782511,0.467312726,0.0,Sr,Ca,O
mp-22428,Sr1 Ce1 O3,6.00426811,6.17442523,8.60143538,90.0,90.0,90.0,ortho,Pnma,-3.614131643,0.008514478,2.2817,Sr,Ce,O
mp-1272815,Sr1 Co1 O3,5.490195545,6.736159543,6.736086111,70.94369734,90.0001565,90.00014446,ortho,Amm2,-1.960253978,0.039565768,0.0,Sr,Co,O
mp-1273854,Sr1 Co1 O3,3.875452677,3.897168604,15.37347411,89.95853369,90.04075786,89.56967037,tet,P4/mmm,-1.964504577,0.035315169,0.0,Sr,Co,O
mp-1283849,Sr1 Co1 O3,3.93834226,5.354912305,5.35492363,90.01243636,90.00001441,90.0000105,tet,P4/mbm,-1.981533223,0.018286523,0.0,Sr,Co,O
mp-505766,Sr1 Co1 O3,5.494343434,5.494297472,5.494332827,60.00007663,89.99943222,119.9999957,cubic,Pm-3m,-1.9179654,0.081854346,0.0,Sr,Co,O
mp-550781,Sr1 Co1 O3,4.924415325,5.520515308,9.692115946,89.96229321,94.70025655,89.99433842,mono,P2_1/m,-1.912309171,0.087510576,0.0,Sr,Co,O
mp-562466,Sr1 Co1 O3,4.928848,5.500237099,9.631704486,89.64130917,84.25562479,89.90167422,tri,P-1,-1.926445248,0.073374498,0.0,Sr,Co,O
mp-1325463,Sr1 Cr1 O3,5.553807463,5.553807463,32.278374,90.0,90.0,119.9997792,ortho,Cmcm,-2.445720255,0.198580512,0.0,Sr,Cr,O
mp-1372100,Sr1 Cr1 O3,5.555374678,5.555374678,13.685607,90.0,90.0,120.2836708,ortho,Cmcm,-2.475249739,0.169051028,0.0,Sr,Cr,O
mp-20029,Sr1 Cr1 O3,3.893204,3.893204,3.893204,90.0,90.0,90.0,cubic,Pm-3m,-2.571755685,0.072545082,0.0,Sr,Cr,O
mp-752441,Sr1 Cr1 O3,5.505115734,5.505115734,13.533804,90.0,90.0,119.9999968,hex_,P6_3/mmc,-2.558570073,0.085730694,0.0,Sr,Cr,O
mp-755321,Sr1 Cr1 O3,5.512270994,5.512270994,9.157297,90.0,90.0,120.0000119,hex_,P6_3/mmc,-2.547868374,0.096432393,0.0,Sr,Cr,O
mp-761337,Sr1 Cr1 O3,5.531538,5.552581242,13.68560731,89.99368284,89.98776684,60.19202419,ortho,Ama2,-2.586664808,0.057635959,0.721,Sr,Cr,O
mp-769855,Sr1 Cr1 O3,5.537311429,5.537311429,9.282726,90.0,90.0,119.3811736,ortho,Ama2,-2.57408074,0.070220027,0.8294,Sr,Cr,O
mp-781082,Sr1 Cr1 O3,5.543739,5.551915445,32.25815788,90.075781,90.00958596,119.898705,ortho,Ama2,-2.579012125,0.065288642,0.588,Sr,Cr,O
mp-1076711,Sr1 Cu1 O3,3.83837744,3.83846023,3.83836534,90.0,90.0,90.0,cubic,Pm-3m,-1.740167173,0.008427794,0.0,Sr,Cu,O
mp-1192969,Sr1 Cu1 O3,3.835821727,8.521220225,10.816168,90.0,90.0,90.05676492,ortho,Pmma,-1.70266666,0.045928306,0.0,Sr,Cu,O
mp-29049,Sr1 Cu1 O3,3.855893,5.409559,8.552606,90.0,90.0,90.0,ortho,Pmmm,-1.705710698,0.042884268,0.0,Sr,Cu,O
mp-1187145,Sr1 Dy1 O3,4.372935,4.372935,4.372935,90.0,90.0,90.0,cubic,Pm-3m,-3.026185685,0.25280565,0.0,Sr,Dy,O
mp-1187147,Sr1 Er1 O3,4.334821,4.334821,4.334821,90.0,90.0,90.0,cubic,Pm-3m,-3.083582123,0.222959852,0.0,Sr,Er,O
mp-1100775,Sr1 Eu1 O3,4.383632,4.383632,4.383632,90.0,90.0,90.0,cubic,Pm-3m,-2.678894374,0.32016035,0.0,Sr,Eu,O
mp-510624,Sr1 Fe1 O3,3.82881691,3.82881275,3.82881172,90.0,90.0,90.0,cubic,Pm-3m,-2.222982897,0.0,0.0,Sr,Fe,O
mp-1080133,Sr1 Ga3 Pd1,6.121312696,6.121312696,6.01136307,90.0,90.0,116.5573363,ortho,Cmcm,-0.614300255,0.0,0.0,Sr,Pd,Ga
mp-1068235,Sr1 Ge3 Ir1,5.964663145,5.964663145,5.964663145,135.8896506,135.8896506,64.15098324,tet,I4mm,-0.581427054,0.0,0.0,Sr,Ir,Ge
mp-978987,Sr1 Ge3 Pd1,6.042452392,6.042452392,6.042452392,136.4648803,136.4648803,63.2624361,tet,I4mm,-0.552342467,0.0,0.0,Sr,Pd,Ge
mp-1068239,Sr1 Ge3 Pt1,5.982998347,5.982998347,5.982998347,135.6832405,135.6832405,64.47043235,tet,I4mm,-0.65806395,0.0,0.0,Sr,Pt,Ge
mp-1078860,Sr1 Ge1 Au3,6.28212474,6.28212474,5.60321956,90.0,90.0,90.0,tet,P4/nmm,-0.559157474,0.0,0.0,Sr,Ge,Au
mp-1016999,Sr1 Ge1 O3,3.85681,3.85681,3.85681,90.0,90.0,90.0,cubic,Pm-3m,-2.593071166,0.150044169,0.0,Sr,Ge,O
mp-17464,Sr1 Ge1 O3,7.260790343,7.260790343,11.2875638,71.65165741,71.65165741,60.11372609,mono,C2/c,-2.743115335,0.0,3.4179,Sr,Ge,O
mp-554869,Sr1 Ge1 O3,8.652139304,9.943575716,11.1675659,73.90493086,89.93632227,77.98048307,tri,P-1,-2.741230597,0.001884739,3.3373,Sr,Ge,O
mp-555731,Sr1 Ge1 O3,7.053510133,7.053510133,5.771364,90.0,90.0,120.0000013,hex_,P-62m,-2.630438872,0.112676463,3.0028,Sr,Ge,O
mp-1207079,Sr1 H3 Pd1,3.82819304,3.82819304,3.82819304,90.0,90.0,90.0,cubic,Pm-3m,-0.515080371,0.0,0.0,Sr,Pd,H
mp-13108,Sr1 Hf1 O3,4.138109,4.138109,4.146736,90.0,90.0,90.0,tet,P4mm,-3.779468507,0.032896417,3.7305,Sr,Hf,O
mp-13109,Sr1 Hf1 O3,5.768559275,5.760483452,5.760484166,60.3699696,59.95360115,59.9536118,ortho,Imma,-3.810444938,0.001919986,3.9893,Sr,Hf,O
mp-3378,Sr1 Hf1 O3,5.76053461,5.77701466,8.14070902,90.0,90.0,90.0,ortho,Pnma,-3.812364924,0.0,4.1704,Sr,Hf,O
mp-3721,Sr1 Hf1 O3,5.786711248,5.786712432,5.786713303,120.6703923,120.6703877,88.8427716,tet,I4/mcm,-3.808274357,0.004090567,4.0578,Sr,Hf,O
mp-4551,Sr1 Hf1 O3,4.141206,4.141206,4.141206,90.0,90.0,90.0,cubic,Pm-3m,-3.779407365,0.032957559,3.7226,Sr,Hf,O
mp-4673,Sr1 Hf1 O3,5.767219101,5.767219101,8.15933204,90.0,90.0,90.62594694,ortho,Cmcm,-3.808616652,0.003748272,3.9535,Sr,Hf,O
mp-550908,Sr1 Hf1 O3,5.73453937,5.73453937,4.13569603,90.0,90.0,90.0,tet,P4/mbm,-3.801078974,0.01128595,3.6764,Sr,Hf,O
mp-1208643,Sr1 Hf1 S3,6.72976646,7.0820188,9.74143735,90.0,90.0,90.0,ortho,Pnma,-2.073963812,0.0,1.4956,Sr,Hf,S
mp-971975,Sr1 Hg1 O3,4.236171,4.236171,4.236171,90.0,90.0,90.0,cubic,Pm-3m,-1.359051234,0.273016527,0.0,Sr,Hg,O
mp-971996,Sr1 Ho1 O3,4.355383,4.355383,4.355383,90.0,90.0,90.0,cubic,Pm-3m,-3.054025574,0.236222594,0.0,Sr,Ho,O
mp-1218236,Sr1 In3 Au1,7.046929711,7.046929711,7.046929711,141.8993837,141.8993837,54.98038974,tet,I4mm,-0.414115972,0.0,0.0,Sr,Au,In
mp-1218256,Sr1 In3 Hg1,7.137794481,7.137794481,7.137794481,141.4088979,141.4088979,55.72020475,tet,I4mm,-0.293897929,0.000184897,0.0,Sr,Hg,In
mp-972021,Sr1 In1 O3,4.214427,4.214427,4.214427,90.0,90.0,90.0,cubic,Pm-3m,-2.115460056,0.194183901,0.0,Sr,In,O
mp-1016848,Sr1 Ir1 O3,3.998048,3.998048,3.998048,90.0,90.0,90.0,cubic,Pm-3m,-1.892127165,0.141754298,0.0,Sr,Ir,O
mp-1105160,Sr1 Ir1 O3,5.641677,5.688867,7.943546,90.0,90.0,90.0,ortho,Pnma,-2.006207057,0.027674406,0.0,Sr,Ir,O
mp-1193907,Sr1 Ir1 O3,5.562151814,5.562057106,14.32050561,88.53209776,88.53074306,119.7141753,mono,C2/c,-2.030413167,0.003468296,0.0,Sr,Ir,O
mp-17097,Sr1 Ir1 O3,5.516079986,5.516079986,14.37888941,90.0,90.0,118.5673208,ortho,Cmcm,-2.014580003,0.01930146,0.0,Sr,Ir,O
mp-24419,Sr1 Li1 H3,4.630791,4.630791,4.630791,90.0,90.0,90.0,cubic,Pm-3m,-0.126509746,0.457782857,1.8195,Sr,Li,H
mp-1187183,Sr1 Li1 O3,3.909437,3.909437,3.909437,90.0,90.0,90.0,cubic,Pm-3m,-1.694797614,0.287957961,0.0,Sr,Li,O
mp-571443,Sr1 Mg1 In3,4.706405955,4.706406209,7.136325073,109.2536156,109.2536032,89.99999377,tet,I-4m2,-0.292186543,0.002842761,0.0,Sr,Mg,In
mp-1187182,Sr1 Mg1 O3,4.02557,4.02557,4.02557,90.0,90.0,90.0,cubic,Pm-3m,-2.317325252,0.220685896,0.0,Sr,Mg,O
mp-1017466,Sr1 Mn1 O3,3.903091002,8.625713699,7.685468004,63.54394851,89.99659718,89.9986426,cubic,Pm-3m,-2.450037028,0.049247349,0.0,Sr,Mn,O
mp-1193101,Sr1 Mn1 O3,5.421407753,5.421407841,13.37753335,89.99999897,90.0000015,119.9999501,hex_,P6_3/mmc,-2.484238835,0.015045542,0.0,Sr,Mn,O
mp-1218206,Sr1 Mn1 O3,5.525516671,5.525516671,9.29245,90.0,90.0,120.000008,hex_,P6_3mc,-2.486665474,0.012618904,0.0,Sr,Mn,O
mp-19001,Sr1 Mn1 O3,5.452331202,5.452331311,9.09318312,90.00000347,89.99999533,120.0000715,hex_,P6_3/mmc,-2.496220726,0.003063651,0.9027,Sr,Mn,O
mp-559975,Sr1 Mn1 O3,5.533027768,5.533027768,9.289115,90.0,90.0,119.7819216,ortho,C222_1,-2.499284377,0.0,0.0,Sr,Mn,O
mp-1078716,Sr1 Mo1 O3,5.629252606,5.640318013,5.617952133,60.20138919,60.19408403,59.81371416,ortho,Imma,-2.58784604,0.009092676,0.0,Sr,Mo,O
mp-1187247,Sr1 Mo1 O3,5.738037269,5.738037269,5.738037269,119.5370982,119.5370982,90.80365695,tet,I4/mcm,-2.556700986,0.04023773,0.0,Sr,Mo,O
mp-1542758,Sr1 Mo1 O3,5.732841561,5.742741993,5.805785386,60.02558061,59.70750324,60.16030212,mono,C2/m,-2.596938716,0.0,1.3088,Sr,Mo,O
mp-18747,Sr1 Mo1 O3,4.080579,4.080579,4.080579,90.0,90.0,90.0,cubic,Pm-3m,-2.512841191,0.084097525,0.0,Sr,Mo,O
mp-10339,Sr1 Nb1 O3,5.72665767,5.73016776,8.13508265,90.0,90.0,90.0,ortho,Pnma,-3.180447969,0.007797433,0.0,Sr,Nb,O
mp-1173150,Sr1 Nb1 O3,5.70922761,5.70973949,8.19387064,90.0,90.0,90.0,tet,P4/mbm,-3.17865883,0.009586572,0.0,Sr,Nb,O
mp-7006,Sr1 Nb1 O3,4.06969111,4.06969111,4.06968705,90.0,90.0,90.0,cubic,Pm-3m,-3.174769313,0.013476089,0.0,Sr,Nb,O
mp-1101333,Sr1 Nd1 O3,4.496464,4.496464,4.496464,90.0,90.0,90.0,cubic,Pm-3m,-2.809206435,0.358035682,0.0,Sr,Nd,O
mp-1101421,Sr1 Ni1 O3,5.491,5.515727,7.79842,90.0,90.0,90.0,ortho,Pnma,-1.761940988,0.047980611,0.0,Sr,Ni,O
mp-1281591,Sr1 Ni1 O3,3.876155557,8.728576716,7.754378032,116.3640937,89.99240568,90.00969472,ortho,Cmmm,-1.751096406,0.058825193,0.0,Sr,Ni,O
mp-1291939,Sr1 Ni1 O3,3.893402664,11.12972517,5.483779774,89.98498803,89.9714725,90.03248363,ortho,Pmma,-1.757847312,0.052074288,0.0,Sr,Ni,O
mp-1299294,Sr1 Ni1 O3,5.502220224,5.503668578,9.627038609,89.82133471,106.4964771,60.04581282,trig,R-3m,-1.75620992,0.05371168,0.0,Sr,Ni,O
mp-752649,Sr1 Ni1 O3,3.853927422,3.853927422,3.839326073,89.99210117,89.99210117,90.22416771,mono,C2,-1.739968425,0.069953175,0.0,Sr,Ni,O
mp-762506,Sr1 Ni1 O3,5.504619191,5.513835293,5.512447132,60.07997227,119.9167875,119.9420211,cubic,Pm-3m,-1.763969883,0.045951717,0.0,Sr,Ni,O
mp-30805,Sr1 Ni1 Sn3,4.744507337,4.744506944,6.40833773,111.7268593,111.7268626,90.00001473,tet,I4mm,-0.435112779,0.0,0.0,Sr,Ni,Sn
mp-1105153,Sr1 Os1 O3,5.585676,5.651719,7.970104,90.0,90.0,90.0,ortho,Pnma,-2.10220435,0.061077385,0.0,Sr,Os,O
mp-867195,Sr1 Os1 O3,3.992358,3.992358,3.992358,90.0,90.0,90.0,cubic,Pm-3m,-2.066363067,0.096918668,0.0,Sr,Os,O
mp-9788,Sr1 P1 S3,6.730717369,7.62497267,9.452381469,90.0,91.67487174,90.0,mono,P2_1/c,-1.308467669,0.0,3.1224,Sr,P,S
mp-7198,Sr1 P1 Se3,7.06898753,7.86156988,9.87071049,90.0,91.60285197,90.0,mono,P2_1/c,-1.128138446,0.0,2.1432,Sr,P,Se
mp-20489,Sr1 Pb1 O3,5.88572476,6.02726206,8.3694263,90.0,90.0,90.0,ortho,Pnma,-2.155550595,0.0,0.7941,Sr,Pb,O
mp-1187190,Sr1 Pd1 O3,4.039472,4.039472,4.039472,90.0,90.0,90.0,cubic,Pm-3m,-1.677081801,0.07012186,0.0,Sr,Pd,O
mp-20464,Sr1 Pr1 O3,6.179822,6.393694,8.887466,90.0,90.0,90.0,ortho,Pnma,-2.996023108,0.145080522,0.0,Sr,Pr,O
mp-1187202,Sr1 Pt1 O3,4.06243,4.06243,4.06243,90.0,90.0,90.0,cubic,Pm-3m,-1.700283457,0.15976487,0.0,Sr,Pt,O
mp-1207172,Sr1 Pu1 O3,4.36308,4.36308,4.36308,90.0,90.0,90.0,cubic,Pm-3m,-3.235445857,0.090643798,0.0,Sr,Pu,O
mp-989623,Sr1 Re1 N3,7.578341342,7.578341342,6.188359917,78.22025713,78.22025713,86.9870866,mono,C2/c,-0.72617078,0.0,1.9969,Sr,Re,N
mp-1187226,Sr1 Re1 O3,3.996911,3.996911,3.996911,90.0,90.0,90.0,cubic,Pm-3m,-2.399926248,0.126408217,0.0,Sr,Re,O
mp-1017441,Sr1 Rh1 O3,4.004484,4.004484,4.004484,90.0,90.0,90.0,cubic,Pm-3m,-1.928895577,0.092648192,0.0,Sr,Rh,O
mp-1206840,Sr1 Rh1 O3,5.663340409,5.663340409,5.663340409,120.9438543,120.9438543,88.37282562,tet,I4/mcm,-1.991144157,0.030399612,0.0,Sr,Rh,O
mp-1206846,Sr1 Rh1 O3,5.558798513,5.558798513,5.558798513,120.6100325,119.0902926,90.26473851,ortho,Imma,-2.003975255,0.017568514,0.0,Sr,Rh,O
mp-1208626,Sr1 Rh1 O3,5.56299551,5.57434186,7.85386216,90.00008343,89.99901072,89.99939644,ortho,Pnma,-2.015733355,0.005810414,0.0,Sr,Rh,O
mp-1079352,Sr1 Ru1 O3,5.36079374,5.36079374,7.473878,90.0,90.0,144.5591948,ortho,Cmcm,-2.147603698,0.043007939,0.0,Sr,Ru,O
mp-1179112,Sr1 Ru1 O3,5.199519,5.210166,14.282888,90.0,90.0,90.0,ortho,Pnma,-1.693977322,0.496634316,0.0,Sr,Ru,O
mp-1192792,Sr1 Ru1 O3,13.159769,13.167603,17.98677,90.0,90.0,90.0,ortho,Pnma,1.969661516,4.160273153,0.0072,Sr,Ru,O
mp-22390,Sr1 Ru1 O3,5.5432724,5.57521296,7.87656975,90.0,90.0,90.0,ortho,Pnma,-2.190611637,0.0,0.0,Sr,Ru,O
mp-22534,Sr1 Ru1 O3,3.667213,3.667213,6.633684,90.0,90.0,90.0,tet,P4/mmm,-1.679872461,0.510739176,0.0,Sr,Ru,O
mp-34212,Sr1 Ru1 O3,5.554798292,5.554798292,5.554798292,120.2984635,119.1626196,90.4701446,ortho,Imma,-2.186947894,0.003663743,0.0,Sr,Ru,O
mp-4346,Sr1 Ru1 O3,3.987275,3.987275,3.987275,90.0,90.0,90.0,cubic,Pm-3m,-2.149272639,0.041338998,0.0,Sr,Ru,O
mp-4525,Sr1 Ru1 O3,5.585515931,5.585515931,5.585515931,120.7861337,120.7861337,88.64368554,tet,I4/mcm,-2.183989452,0.006622185,0.0,Sr,Ru,O
mp-611033,Sr1 Ru1 O3,5.166891,5.199313,13.16028,90.0,90.0,90.0,ortho,Pnma,-1.680883608,0.509728029,0.0,Sr,Ru,O
mp-1187192,Sr1 Sb1 O3,4.208672,4.208672,4.208672,90.0,90.0,90.0,cubic,Pm-3m,-2.375606297,0.132098441,0.0,Sr,Sb,O
mp-1204655,Sr1 Sb1 Se3,4.210294,15.852011,33.670018,90.0,90.0,90.0,ortho,P2_12_12_1,-1.24348197,0.0,0.3581,Sr,Sb,Se
mp-1187191,Sr1 Sc1 O3,4.139926,4.139926,4.139926,90.0,90.0,90.0,cubic,Pm-3m,-3.186553572,0.091257467,0.0,Sr,Sc,O
mp-3395,Sr1 Se1 O3,4.464503016,5.48280168,6.553714734,90.0,107.2429275,90.0,mono,P2_1/m,-2.315657463,0.0,3.7027,Sr,Se,O
mp-555098,Sr1 Se1 O3,4.47018024,5.47644898,12.51970382,90.0,90.0,90.0,ortho,Pnma,-2.315592204,6.53e-05,3.8862,Sr,Se,O
mp-1067925,Sr1 Si3 Au1,5.861096705,5.861096705,5.861096705,135.6158621,135.6158621,64.57478076,tet,I4mm,-0.369234817,0.013149417,0.0,Sr,Au,Si
mp-1069139,Sr1 Si3 Ni1,5.71175116,5.71175116,5.71175116,137.1550889,137.1550889,62.19951541,tet,I4mm,-0.434342905,0.0,0.0,Sr,Ni,Si
mp-1017439,Sr1 Si1 O3,3.698902,3.698902,3.698902,90.0,90.0,90.0,cubic,Pm-3m,-3.116950543,0.32427593,2.3831,Sr,Si,O
mp-1173151,Sr1 Si1 O3,4.425766346,7.636785955,10.902415,90.0,90.0,91.06611217,mono,Pc,-2.538186028,0.903040446,0.0514,Sr,Si,O
mp-18313,Sr1 Si1 O3,6.945185745,6.955362711,9.712505184,69.57432701,83.49285053,75.56126536,tri,P-1,-3.424207037,0.017019436,4.3766,Sr,Si,O
mp-3978,Sr1 Si1 O3,7.136260513,7.136260513,10.9044951,71.42083431,71.42083431,60.1595747,mono,C2/c,-3.441226473,0.0,4.6251,Sr,Si,O
mp-561547,Sr1 Si1 O3,6.156284,7.549925,13.62593721,63.22638311,90.0,90.0,mono,P2_1/c,-3.405199028,0.036027446,4.8212,Sr,Si,O
mp-30834,Sr1 Sn3 Pd1,4.805384472,4.805384472,6.644368713,111.1851596,111.18516,89.98720191,tet,I4mm,-0.579115999,0.0,0.0,Sr,Pd,Sn
mp-12866,Sr1 Sn1 O3,5.72636674,5.726367057,5.726367038,90.4842804,119.4524215,119.9899029,ortho,Imma,-2.633699614,0.003659024,1.6118,Sr,Sn,O
mp-12867,Sr1 Sn1 O3,5.755857676,5.755857372,5.755854614,120.9187994,120.9188034,88.41596687,tet,I4/mcm,-2.63065168,0.006706957,1.555,Sr,Sn,O
mp-2879,Sr1 Sn1 O3,5.73820206,5.72649997,8.10161313,90.0,90.0,90.0,ortho,Pnma,-2.637358638,0.0,1.7365,Sr,Sn,O
mp-546973,Sr1 Sn1 O3,4.114859,4.114859,4.114859,90.0,90.0,90.0,cubic,Pm-3m,-2.589623864,0.047734773,0.9698,Sr,Sn,O
mp-1205419,Sr1 Sn1 S3,3.89318425,8.30673434,14.2045019,90.0,90.0,90.0,ortho,Pnma,-1.268202613,0.0,0.8336,Sr,Sn,S
mp-1186755,Sr1 Ta1 O3,4.066878,4.066878,4.066878,90.0,90.0,90.0,cubic,Pm-3m,-3.278887796,0.059606807,0.0,Sr,Ta,O
mp-21898,Sr1 Tb1 O3,6.048345,6.226708,8.597645,90.0,90.0,90.0,ortho,Pnma,-3.14561541,0.121943572,0.0,Sr,Tb,O
mp-989530,Sr1 Tc1 N3,3.756696771,6.465001679,6.670802246,104.3540737,90.00000018,106.8903495,mono,C2/m,-0.543638045,0.040815144,0.5244,Sr,Tc,N
mp-989546,Sr1 Tc1 N3,6.653808093,6.653808093,5.768975,90.0,90.0,143.1008352,ortho,Cmcm,-0.56455378,0.01989941,0.0,Sr,Tc,N