mp_id,composition,a_edge (angstrom),b_edge (angstrom),c_edge (angstrom),alpha_ang (deg),beta_ang (deg),gamma_ang (deg),crystal_system,space_group,formation_energy (eV/atom),energy_above_hull (eV/atom),band_gap (eV),A_site,B_site,X_site
mp-753953,Gd1 As1 O3,12.060432,4.44231,6.500154626,59.90759353,90.0,90.0,mono,P2_1/c,-2.756159135,0.048771132,2.1719,Gd,As,O
mp-1194303,Gd1 B1 O3,6.630340993,6.63034203,9.681883074,70.33476037,70.33475606,60.09216631,mono,C2/c,-3.499030348,0.0,3.1001,Gd,B,O
mp-1224628,Gd1 B1 O3,3.930880936,3.930880936,8.64031518,90.0,90.0,113.1449282,ortho,Ama2,-3.413649317,0.085381031,0.1743,Gd,B,O
mp-29762,Gd1 B1 O3,6.129265409,6.129265409,6.129266154,62.98774565,62.98774565,62.98775685,trig,R32,-3.279609315,0.219421033,2.095,Gd,B,O
mp-561949,Gd1 B1 O3,5.28102988,5.28102988,6.518395,90.0,90.0,119.9999985,hex_,P6_3/mmc,-3.355493508,0.14353684,2.2691,Gd,B,O
mp-20967,Gd1 B1 Pd3,4.305525,4.305525,4.305525,90.0,90.0,90.0,cubic,Pm-3m,-0.596742473,0.120721311,0.0,Gd,B,Pd
mp-19840,Gd1 B1 Rh3,4.19646217,4.19646627,4.19648879,90.0,90.0,90.0,cubic,Pm-3m,-0.794227558,0.0,0.0,Gd,B,Rh
mp-1184468,Gd1 Be1 O3,3.599403,3.599403,3.599403,90.0,90.0,90.0,cubic,Pm-3m,-2.873410768,0.315437449,0.0,Gd,Be,O
mp-1184471,Gd1 Cd1 O3,4.138427,4.138427,4.138427,90.0,90.0,90.0,cubic,Pm-3m,-1.811146171,0.675020264,0.0,Gd,Cd,O
mp-20951,Gd1 Co1 O3,3.773077,3.858134,3.773779,90.0,90.0,90.0,cubic,Pm-3m,-2.329470013,0.23321203,0.0,Gd,Co,O
mp-1069379,Gd1 Co1 Si3,5.612877539,5.612877539,5.612877539,137.4665121,137.4665121,61.72105028,tet,I4mm,-0.636001576,0.0,0.0,Gd,Co,Si
mp-1147577,Gd1 Cr1 O3,3.871736,3.871736,3.871736,90.0,90.0,90.0,cubic,Pm-3m,-2.938642427,0.234661732,0.7847,Gd,Cr,O
mp-18331,Gd1 Cr1 O3,5.31706381,5.54613965,7.61618941,90.0,90.0,90.0,ortho,Pnma,-3.173304159,0.0,2.6309,Gd,Cr,O
mp-1184481,Gd1 Cu1 O3,3.798793,3.798793,3.798793,90.0,90.0,90.0,cubic,Pm-3m,-2.246362585,0.159271216,0.0,Gd,Cu,O
mp-1184486,Gd1 Er1 O3,4.241146,4.241146,4.241146,90.0,90.0,90.0,cubic,Pm-3m,-3.241294057,0.734958888,0.3657,Gd,Er,O
mp-766236,Gd1 Er1 O3,9.203974041,9.205196265,10.62369703,54.72360345,54.73550363,70.51267689,mono,C2,-3.97134948,0.004903464,3.2641,Gd,Er,O
mp-600576,Gd1 Fe1 O3,5.35764278,5.64185001,7.68223768,90.0,90.0,90.0,ortho,Pnma,-2.797173253,0.004078319,0.0,Gd,Fe,O
mp-1212456,Gd1 Ga3 Os1,6.42088356,6.42087623,6.42090036,89.99996823,90.00002686,89.99999001,cubic,Pm-3m,-0.484677201,0.0,0.0,Gd,Os,Ga
mp-1104851,Gd1 Ga3 Ru1,6.42124033,6.42108281,6.41009931,90.0,90.0,90.0000182,cubic,Pm-3m,-0.582121322,0.0,0.0,Gd,Ru,Ga
mp-18656,Gd1 Ga1 O3,5.373171,5.619652,7.703354,90.0,90.0,90.0,ortho,Pnma,-3.077733938,0.04892608,3.3962,Gd,Ga,O
mp-1212640,Gd1 In1 O3,6.367214475,6.367214541,12.34803472,90.00000308,90.00000487,119.9998517,hex_,P6_3cm,-2.948039821,0.0,1.7714,Gd,In,O
mp-1212778,Gd1 In1 O3,5.603476,5.932986,8.215895,90.0,90.0,90.0,ortho,Pnma,-2.895804029,0.052235792,2.5213,Gd,In,O
mp-756424,Gd1 Lu1 O3,5.672778,5.931047,8.264289,90.0,90.0,90.0,ortho,Pnma,-3.954000719,0.055596962,3.1346,Gd,Lu,O
mp-510575,Gd1 Mn1 O3,5.33266967,5.63531689,7.62006186,90.0,90.0,90.0,ortho,Pnma,-2.981953118,0.0,0.4041,Gd,Mn,O
mp-1079303,Gd1 Ni1 Ge3,11.01922665,11.01922665,4.127765,90.0,90.0,158.3428095,ortho,Cmmm,-0.584412268,0.0,0.0,Gd,Ni,Ge
mp-505604,Gd1 Ni1 O3,5.23580731,5.49316529,7.47467175,90.0,90.0,90.0,ortho,Pnma,-2.449596328,0.0,0.0,Gd,Ni,O
mp-20182,Gd1 Rh3 C1,4.16968333,4.16967923,4.16969563,90.0,90.0,90.0,cubic,Pm-3m,-0.461147228,0.0,0.0,Gd,C,Rh
mp-1184503,Gd1 Rh1 O3,3.963804,3.963804,3.963804,90.0,90.0,90.0,cubic,Pm-3m,-2.071613033,0.424622491,0.0,Gd,Rh,O
mp-5690,Gd1 Sc1 O3,5.49028423,5.75677968,7.96255827,90.0,90.0,90.0,ortho,Pnma,-3.920327644,0.011744572,3.1418,Gd,Sc,O
mp-510490,Gd1 Sc1 S3,6.41368888,7.06362167,9.53369315,90.0,90.0,90.0,ortho,Pnma,-2.262208398,0.0,1.1774,Gd,Sc,S
mp-1069477,Gd1 Si3 Ir1,4.211714,4.211714,5.745584377,111.5009997,111.5009997,90.0,tet,I4mm,-0.812805428,0.0,0.0,Gd,Ir,Si
mp-1184484,Gd1 Si1 O3,3.730327,3.730327,3.730327,90.0,90.0,90.0,cubic,Pm-3m,-2.882494295,0.60703388,0.0,Gd,Si,O
mp-1184491,Gd1 Th1 O3,4.58893,4.58893,4.58893,90.0,90.0,90.0,cubic,Pm-3m,-3.137951191,0.78119351,0.0,Gd,Th,O
mp-510278,Gd1 Ti1 O3,5.411929,5.706203,7.746719,90.0,90.0,90.0,ortho,Pnma,-3.617602679,0.026689669,0.0,Gd,Ti,O
mp-756030,Gd1 Tm1 O3,5.691408,5.949788,8.333527,90.0,90.0,90.0,ortho,Pnma,-3.924894951,0.067847397,3.159,Gd,Tm,O
mp-541177,Gd1 V1 O3,5.340210449,5.67985439,7.572467958,90.13197242,89.91655894,90.03460105,ortho,Pnma,-3.252683904,0.0,0.0,Gd,V,O
mp-1184599,Gd1 Zr1 O3,4.162337,4.162337,4.162337,90.0,90.0,90.0,cubic,Pm-3m,-3.280181135,0.392936962,0.0,Gd,Zr,O
mp-973738,Ge1 B1 O3,3.407341,3.407341,3.407341,90.0,90.0,90.0,cubic,Pm-3m,-1.010670926,1.358852278,0.0,Ge,B,O
mp-1184562,Ge1 Bi1 O3,3.94791,3.94791,3.94791,90.0,90.0,90.0,cubic,Pm-3m,-1.446279978,0.423426929,0.0,Ge,Bi,O
mp-28369,Ge1 H3 Cl1,4.586317384,4.586318865,8.35736286,90.0,90.0,104.8259431,ortho,Cmc2_1,-0.404550759,0.0,4.7492,Ge,Cl,H
mp-1188940,Ge1 N1 Cl3,8.590112,8.552563,9.615191,90.0,90.0,90.0,ortho,Pnma,0.396610897,1.172104375,1.1093,Ge,N,Cl
mp-1224374,Ge1 N1 Cl3,6.497648119,6.497648119,6.49764843,95.38146972,95.38146972,95.38145965,trig,R3m,0.497308005,1.272801484,0.4271,Ge,N,Cl
mp-1017566,Ge1 Pb1 O3,3.888437,3.888437,3.888437,90.0,90.0,90.0,cubic,Pm-3m,-1.71147221,0.217755943,0.0,Ge,Pb,O
mp-553898,Ge1 Pb1 O3,7.22947028,11.45931796,13.29401279,118.984505,89.9999901,90.0000005,mono,P2/c,-1.916117909,0.013110244,2.9339,Ge,Pb,O
mp-554699,Ge1 Pb1 O3,9.346834621,9.346834617,9.34683482,113.5018858,113.5018858,113.5018754,trig,R-3,-1.929228153,0.0,2.7131,Ge,Pb,O
mp-624190,Ge1 Pb1 S3,10.51691811,6.899259188,7.398606342,74.60755248,90.0,90.0,mono,P2_1/c,-0.73199338,0.0,1.7579,Ge,Pb,S
mp-1184557,Ge1 Pd1 O3,3.767674,3.767674,3.767674,90.0,90.0,90.0,cubic,Pm-3m,-0.935923786,0.674000174,0.0,Ge,Pd,O
mp-541785,Ge1 Pd1 S3,3.47151536,7.581681148,9.321243387,106.7401816,90.0,103.2347361,mono,C2/m,-0.650651115,0.0,1.3441,Ge,Pd,S
mp-1224339,Ge1 Sb1 Te3,10.16588788,10.16588788,10.16588814,23.88331071,23.88331071,23.88330986,trig,R3m,-0.328361069,0.027202952,0.0,Ge,Sb,Te
mp-1184641,Ge1 Te1 O3,3.901783,3.901783,3.901783,90.0,90.0,90.0,cubic,Pm-3m,-1.014709907,0.727801492,0.0,Ge,Te,O
mp-625509,H3 Br1 O1,4.243537036,4.265772796,4.243405519,71.96815334,72.0529535,72.07401259,trig,R3m,-1.029843963,0.0,4.4183,Br,O,H
mp-625521,H3 Br1 O1,4.276298453,4.276298453,4.429754639,71.60769411,71.60769411,70.76810896,mono,Cm,-1.029510991,0.000332972,4.417,Br,O,H
mp-1078197,H3 C1 Br1,4.470543984,4.470543984,8.082275,90.0,90.0,102.908134,ortho,Cmc2_1,-0.278353314,0.05479283,4.5531,C,Br,H
mp-1078233,H3 C1 Cl1,4.137763842,4.137763842,7.651655,90.0,90.0,103.5408506,ortho,Cmc2_1,-0.372497522,0.079513755,5.5721,C,Cl,H
mp-1096983,H3 C1 I1,15.47897893,15.47897893,15.47897935,90.20473349,90.20473349,90.20473612,trig,R3m,-0.148403083,0.091890806,4.2895,C,I,H
mp-1181198,H3 C1 I1,4.775167,7.237313,10.250821,90.0,90.0,90.0,ortho,Pnma,-0.1722424,0.068051489,3.3729,C,I,H
mp-554676,H3 C1 S1,6.653195,8.746443,9.005909245,85.85458805,90.0,90.0,mono,P2_1/c,-0.229118784,0.046965817,3.7158,C,S,H
mp-559204,H3 C1 S1,15.292967,5.368541,7.006773799,72.7721643,90.0,90.0,mono,P2_1/c,-0.230315419,0.045769182,3.5897,C,S,H
mp-1200055,H3 C1 Se1,5.684396,10.06453165,12.44799344,86.30308249,76.80147567,73.59665617,ortho,Fdd2,-0.183316474,0.006003464,2.5842,C,Se,H
mp-2802611,H3 Cl1 O1,4.444629671,4.444629671,4.444630229,65.08674623,65.08674623,65.08674218,trig,R3m,-1.147543488,0.0,5.5013,Cl,O,H
mp-34078,H3 Cl1 O1,4.04072666,4.04072761,4.040728367,72.6206786,72.62067608,72.62065901,trig,R3m,-1.141709342,0.005834146,5.3864,Cl,O,H
mp-1181751,H3 N1 Cl1,10.12375459,10.46561117,6.948137932,91.35170445,94.11293506,109.7169988,tri,P1,-0.345903649,0.371334987,0.8704,N,Cl,H
mp-1200750,H3 N1 Cl1,7.911228,7.911228,7.911228,90.0,90.0,90.0,cubic,Pa-3,-0.649830263,0.067408374,5.1807,N,Cl,H
mp-760361,H3 N1 Cl1,8.583808,8.583808,8.583808,90.0,90.0,90.0,cubic,Pa-3,-0.498317909,0.218920727,2.7143,N,Cl,H
mp-626534,H3 N1 O1,4.723991,4.642221,7.160662911,88.85495443,90.0,90.0,mono,P2_1,-0.513895016,0.36740352,3.7763,N,O,H
mp-626542,H3 N1 O1,5.251607,5.624597506,7.924790821,87.60940489,87.70838668,88.1246807,tri,P1,-0.075317109,0.805981426,0.2875,N,O,H
mp-626543,H3 N1 O1,5.124488,5.570499995,8.324174394,85.44119159,86.45030453,84.11241682,tri,P1,-0.675640967,0.205657568,2.4233,N,O,H
mp-27714,H3 O1 F1,4.17123172,5.89213507,6.10259572,90.0,90.0,90.0,ortho,Pnma,-1.53684478,0.0,6.7458,O,F,H
mp-23963,H1 I1 O3,5.716437,5.890396,8.00416,90.0,90.0,90.0,ortho,P2_12_12_1,-0.897171053,0.01635329,3.1022,H,I,O
mp-556216,H1 I1 O3,5.689863,6.281024,15.264686,90.0,90.0,90.0,ortho,Pbca,-0.895401522,0.018122822,3.0606,H,I,O
mp-1199435,H1 N1 O3,8.083698,8.69044,8.442266887,90.0,121.4313222,90.0,mono,P2_1/c,-0.886263422,0.00404894,3.8974,H,N,O
mp-1224772,H1 N1 O3,8.40384207,6.186005643,16.23030271,90.02950809,90.0,90.0,mono,P2_1,-0.890312362,0.0,3.8657,H,N,O
mp-1004524,H1 Pb1 I3,6.244213,6.244213,6.244213,90.0,90.0,90.0,cubic,Pm-3m,0.037986169,0.663115587,0.0,H,Pb,I
mp-27669,H1 S3 N1,13.192363,8.5105,9.337230035,58.81438503,90.0,90.0,mono,P2/c,-0.025195962,0.177171109,3.1338,H,N,S
mp-696216,H1 S3 N1,7.454668,8.473771,13.350597,90.0,90.0,90.0,ortho,Pnma,-0.026077779,0.176289293,2.8733,H,N,S
mp-706654,H1 S3 N1,8.537202,13.139007,14.622239,90.0,90.0,90.0,ortho,Pbca,-0.026473299,0.175893772,2.9526,H,N,S
mp-1079110,Hf3 Al1 N1,5.898134001,5.898134001,8.83856158,90.0,90.0,147.4786892,ortho,Cmcm,-1.088516715,0.0,0.0,Al,N,Hf
mp-1014252,Hf3 Zn1 N1,5.840821849,5.840821849,8.74354286,90.0,90.0,147.1263711,ortho,Cmcm,-1.017868711,0.0,0.0,Zn,N,Hf
mp-1184625,Hf1 B1 O3,3.425085,3.425085,3.425085,90.0,90.0,90.0,cubic,Pm-3m,-2.021541439,1.335505469,0.0,Hf,B,O
mp-1017578,Hf1 B1 Rh3,4.09526278,4.09526278,4.09526278,90.0,90.0,90.0,cubic,Pm-3m,-0.824459452,0.0,0.0,Hf,B,Rh
mp-1184563,Hf1 Be1 O3,3.438335,3.438335,3.438335,90.0,90.0,90.0,cubic,Pm-3m,-2.887019378,0.766009567,1.0495,Hf,Be,O
mp-1017446,Hf1 Cd1 O3,4.098109,4.098109,4.098109,90.0,90.0,90.0,cubic,Pm-3m,-2.670019159,0.280328005,0.0,Hf,Cd,O
mp-1212404,Hf1 Cd1 O3,5.49403226,5.65745168,7.95897904,90.0,90.0,90.0,ortho,Pnma,-2.935717662,0.014629502,0.0,Hf,Cd,O
mp-753534,Hf1 Co1 O3,5.40392,5.432294,7.828693,90.00007878,90.00026957,90.0000423,ortho,Pnma,-2.825757571,0.094861512,2.5156,Hf,Co,O
mp-756322,Hf1 Cr1 O3,4.906804,5.329205,9.361863,90.0,90.0,90.0,ortho,Pnma,-3.103459338,0.097289876,1.7873,Hf,Cr,O
mp-753790,Hf1 Fe1 O3,5.037946,5.330404,8.7772,90.0,90.0,90.0,ortho,Pnma,-2.908301796,0.096192584,2.3645,Hf,Fe,O
mp-753856,Hf1 Fe1 O3,5.427722,5.511527,7.875288,90.0,90.0,90.0,ortho,Pnma,-2.941841794,0.062652586,2.9099,Hf,Fe,O
mp-1016841,Hf1 Hg1 O3,4.122739,4.122739,4.122739,90.0,90.0,90.0,cubic,Pm-3m,-2.36685846,0.299051158,0.0,Hf,Hg,O
mp-1016825,Hf1 Mg1 O3,4.072456,4.072456,4.072456,90.0,90.0,90.0,cubic,Pm-3m,-3.037705826,0.589504466,1.1738,Hf,Mg,O
mp-754657,Hf1 Mn1 O3,5.41102,5.606515,7.906697,89.99998253,89.999932,90.00065527,ortho,Pnma,-3.171712298,0.053202234,3.3253,Hf,Mn,O
mp-1178219,Hf1 Ni1 O3,5.338353,4.977777,9.46694726,59.27469895,90.0,90.0,mono,P2_1/c,-2.802277456,0.096843289,2.7983,Hf,Ni,O
mp-1184669,Hf1 Np1 O3,4.121025,4.121025,4.121025,90.0,90.0,90.0,cubic,Pm-3m,-3.132554205,0.359693674,0.0,Hf,Np,O
mp-1181854,Hf1 Pb1 O3,5.819735,11.475254,9.210148,90.0,90.0,90.0,ortho,Pbam,-2.721980378,0.277895181,2.3889,Hf,Pb,O
mp-22535,Hf1 Pb1 O3,4.155481,4.155481,4.155481,90.0,90.0,90.0,cubic,Pm-3m,-2.959238817,0.040636742,2.4149,Hf,Pb,O
mp-22734,Hf1 Pb1 O3,5.83973713,8.16659022,11.68453719,90.0,90.0,90.0,ortho,Pbam,-2.990494839,0.00938072,2.7161,Hf,Pb,O
mp-669414,Hf1 Pb1 O3,5.931434,8.303966,11.804147,90.0,90.0,90.0,ortho,Pba2,-2.987005471,0.012870089,2.7795,Hf,Pb,O
mp-755790,Hf1 Pb1 O3,5.79707532,5.79311185,8.19633351,90.0,90.0,90.0,ortho,Pnma,-2.985043062,0.014832497,2.7562,Hf,Pb,O
mp-22147,Hf1 Pb1 S3,3.76009552,9.1346626,14.04024182,90.0,90.0,90.0,ortho,Pnma,-1.4550181,0.005059236,1.4517,Hf,Pb,S
mp-776083,Hf1 Sn1 O3,7.456477905,7.456477905,7.456477921,42.87209825,42.87209825,42.87209609,trig,R-3,-2.995080959,0.068686627,2.3676,Hf,Sn,O
mp-8725,Hf1 Sn1 S3,3.70225689,9.38317293,14.17625343,90.0,90.0,90.0,ortho,Pnma,-1.28652317,0.0,1.1981,Hf,Sn,S
mp-1184597,Hf1 Th1 O3,4.120356,4.120356,4.120356,90.0,90.0,90.0,cubic,Pm-3m,-3.158203891,0.668413525,0.0,Hf,Th,O
mp-1016819,Hf1 Zn1 O3,4.076656,4.076656,4.076656,90.0,90.0,90.0,cubic,Pm-3m,-2.441217455,0.687028815,0.0,Hf,Zn,O
mp-558934,Hg3 Cl1 O1,10.93778728,10.93778728,17.41277246,71.24644952,71.24644952,50.02856981,mono,C2/c,-0.596493168,0.004985985,1.2708,Cl,O,Hg
mp-30284,Hg1 As1 O3,4.86693703,4.866937428,7.69342784,90.0,90.0,120.000004,trig,P-31m,-1.36217976,0.0,1.2351,Hg,As,O
mp-778408,Hg1 Bi1 O3,6.122759118,6.122759118,6.122759109,57.9828502,57.9828502,57.98284921,trig,R-3c,-1.092814735,0.037066734,0.0,Hg,Bi,O
mp-27994,Hg1 Br1 O3,9.763821933,9.763821933,8.599402276,72.99835242,72.99835242,26.6274367,mono,C2/c,-0.395069115,0.0,3.2015,Hg,Br,O
mp-30937,Hg1 Cl1 O3,6.499923,8.741893,15.49749485,62.49410105,90.0,90.0,mono,P2_1/c,-0.462232588,0.042710142,3.0661,Hg,Cl,O
mp-1017447,Hg1 Ge1 O3,3.82031,3.82031,3.82031,90.0,90.0,90.0,cubic,Pm-3m,-1.172762239,0.375254153,0.0,Hg,Ge,O
mp-1224643,Hg1 I3 N1,8.939513007,10.869437,11.98558455,90.0,86.36560152,90.0,mono,P2_1/c,0.293597102,0.697944573,1.6452,Hg,N,I
mp-1016831,Hg1 Ir1 O3,3.966927,3.966927,3.966927,90.0,90.0,90.0,cubic,Pm-3m,-0.60864662,0.401912078,0.0,Hg,Ir,O
mp-1069250,Hg1 N1 Cl3,4.13024,4.13024,8.011948,90.0,90.0,90.0,tet,P4/mmm,0.710554717,1.120646122,0.0,Hg,N,Cl
mp-1197269,Hg1 N1 O3,9.830965,9.830965,9.830965,90.0,90.0,90.0,cubic,P4_132,-0.526397145,0.221212201,0.0,Hg,N,O
mp-542289,Hg1 N1 O3,8.31497555,6.286624987,11.72064329,87.06225777,90.0,90.0,mono,P2_1,-0.747609346,0.0,2.5687,Hg,N,O
mp-1016840,Hg1 Os1 O3,3.954635,3.954635,3.954635,90.0,90.0,90.0,cubic,Pm-3m,-0.85115332,0.316064325,0.0,Hg,Os,O
mp-27178,Hg1 P1 S3,6.319751317,6.324721126,7.330869789,95.80298378,106.0667818,118.927447,tri,P-1,-0.484708718,0.0,1.7549,Hg,P,S
mp-7293,Hg1 P1 Se3,6.650608626,6.650608626,14.17399574,85.8581518,85.8581518,120.0961229,mono,C2/c,-0.181591272,0.0,1.2066,Hg,P,Se
mp-1016877,Hg1 Rh1 O3,3.970706,3.970706,3.970706,90.0,90.0,90.0,cubic,Pm-3m,-0.576046378,0.409349453,0.0,Hg,Rh,O
mp-1016851,Hg1 Ru1 O3,3.944331,3.944331,3.944331,90.0,90.0,90.0,cubic,Pm-3m,-0.82714738,0.301472753,0.0,Hg,Ru,O
mp-1200893,Hg1 S1 N3,5.6121,10.303859,15.41939,90.0,90.0,90.0,ortho,Pbca,1.361817332,1.511840934,0.8006,Hg,S,N
mp-10798,Hg1 Se1 O3,9.14933303,4.822833045,7.168443611,88.81265267,90.0,90.0,mono,P2_1/c,-1.043617495,0.004895135,2.2784,Hg,Se,O
mp-557224,Hg1 Se1 O3,4.404282462,7.229692947,10.3010115,90.0,90.0,103.0170745,mono,P2_1/c,-1.047778545,0.000734086,2.6045,Hg,Se,O
mp-9228,Hg1 Se1 O3,5.98911586,6.17326333,8.24957921,90.0,90.0,90.0,ortho,Pnma,-1.048512631,0.0,2.5571,Hg,Se,O
mp-28318,Hg1 Te1 O3,6.197889605,7.41512815,7.522058656,93.14699386,113.7605508,92.40509283,tri,P-1,-1.169260638,0.014454453,2.2362,Hg,Te,O
mp-29677,Ho3 Al1 C1,4.83811738,4.83811738,4.83811738,90.0,90.0,90.0,cubic,Pm-3m,-0.400977008,0.0,0.0,Al,C,Ho
mp-1017577,Ho3 Al1 N1,4.71952011,4.71952011,4.71952011,90.0,90.0,90.0,cubic,Pm-3m,-1.098518033,0.0,0.0,Al,N,Ho
mp-10279,Ho3 Ga1 C1,5.274446,5.274446,5.274446,90.0,90.0,90.0,cubic,Pm-3m,1.196718592,1.618684529,0.0,Ga,C,Ho
mp-1200030,Ho3 Ga1 Ni1,14.6942544,14.6942544,14.6942544,134.0756483,134.0756483,66.96987647,tet,I4/mcm,-0.438152802,0.015015336,0.0,Ga,Ni,Ho
mp-10356,Ho3 In1 C1,5.559885,5.559885,5.559885,90.0,90.0,90.0,cubic,Pm-3m,1.612796776,1.956069486,0.0,In,C,Ho
mp-31057,Ho3 In1 N1,4.76233324,4.76233324,4.76233324,90.0,90.0,90.0,cubic,Pm-3m,-1.067085231,0.0,0.0,In,N,Ho
mp-1206983,Ho3 Pb1 C1,4.86345615,4.86345615,4.86345615,90.0,90.0,90.0,cubic,Pm-3m,-0.540162176,0.0,0.0,Pb,C,Ho
mp-7114,Ho3 Sn1 C1,5.57875,5.57875,5.57875,90.0,90.0,90.0,cubic,Pm-3m,1.481036937,2.000656815,0.0,Sn,C,Ho
mp-20978,Ho3 Tl1 C1,5.579005,5.579005,5.579005,90.0,90.0,90.0,cubic,Pm-3m,1.633638949,1.928731188,0.0,Tl,C,Ho
mp-1224113,Ho1 Al3 Cu1,4.096633731,4.096610026,6.046864735,70.23384906,70.23457676,90.04531084,tet,I4mm,-0.423917137,0.0,0.0,Ho,Cu,Al
mp-4891,Ho1 Al1 O3,5.14522288,5.3135455,7.35118279,90.0,90.0,90.0,ortho,Pnma,-3.752550615,0.015694615,5.8359,Ho,Al,O
mp-1205558,Ho1 B3 Mo1,3.1542658,5.414664463,6.816896815,78.02809308,90.0,90.0,mono,P2_1/m,-0.625257528,0.0,0.0,Ho,Mo,B
mp-1184546,Ho1 B1 O3,3.472834,3.472834,3.472834,90.0,90.0,90.0,cubic,Pm-3m,-2.685989058,0.871064865,2.6416,Ho,B,O
mp-752713,Ho1 B1 O3,6.505299084,6.505299084,8.78765674,90.0,90.0,120.0681046,ortho,Cmcm,-3.557053923,0.0,5.4365,Ho,B,O
mp-753056,Ho1 B1 O3,3.928095687,3.928095687,8.618539,90.0,90.0,116.972639,ortho,Ama2,-3.467820159,0.089233764,4.5465,Ho,B,O
mp-754409,Ho1 B1 O3,6.272718909,6.272718909,6.272719154,46.82821797,46.82821797,46.82822566,trig,R-3c,-3.5305516,0.026502323,5.0898,Ho,B,O
mp-780393,Ho1 B1 O3,7.228018,9.021101114,9.874026961,81.34804878,85.64533365,77.17694495,tri,P-1,-3.497943985,0.059109938,5.0461,Ho,B,O
mp-850193,Ho1 B1 O3,6.132363,6.389442756,6.391368677,92.76987503,108.2358666,107.5260702,tri,P-1,-3.524040384,0.033013539,5.367,Ho,B,O
mp-3693,Ho1 B1 Pd3,4.312194,4.312194,4.312194,90.0,90.0,90.0,cubic,Pm-3m,-0.663728673,0.112943182,0.0,Ho,B,Pd
mp-3710,Ho1 B1 Rh3,4.16588183,4.16588183,4.16588183,90.0,90.0,90.0,cubic,Pm-3m,-0.802135197,0.0,0.0,Ho,B,Rh
mp-1184610,Ho1 Be1 O3,3.562762,3.562762,3.562762,90.0,90.0,90.0,cubic,Pm-3m,-2.888894155,0.366027888,0.0,Ho,Be,O
mp-1178162,Ho1 Bi1 O3,6.132121358,6.132121358,6.132121124,58.55441475,58.55441475,58.55441423,trig,R3c,-2.802988329,0.031655001,3.1343,Ho,Bi,O
mp-754300,Ho1 Bi1 O3,6.127323233,6.127323233,6.127324108,58.51664743,58.51664743,58.51664936,trig,R-3,-2.784963122,0.049680208,2.4719,Ho,Bi,O
mp-770830,Ho1 Bi1 O3,5.790455,6.208609,8.435383,90.0,90.0,90.0,ortho,Pnma,-2.798783189,0.03586014,2.9128,Ho,Bi,O
mp-1223843,Ho1 Bi1 Te3,10.86945981,10.86945981,10.86945971,23.34107421,23.34107421,23.34107577,trig,R3m,-0.944720148,0.025305,1.0659,Ho,Bi,Te
mp-1188609,Ho1 Co1 O3,3.851742,5.685668,12.251152,90.0,90.0,90.0,ortho,Pnma,-2.210788985,0.420407865,0.162,Ho,Co,O
mp-20570,Ho1 Co1 O3,5.11319813,5.42543382,7.33341945,90.0,90.0,90.0,ortho,Pnma,-2.631196851,0.0,0.0,Ho,Co,O
mp-756834,Ho1 Cr1 O3,5.21129171,5.52912416,7.5265797,90.0,90.0,90.0,ortho,Pnma,-3.226728324,0.0,2.4964,Ho,Cr,O
mp-1184736,Ho1 Cu1 O3,3.765209,3.765209,3.765209,90.0,90.0,90.0,cubic,Pm-3m,-2.214273024,0.252429954,0.0,Ho,Cu,O
mp-1184778,Ho1 Er1 O3,4.246395,4.246395,4.246395,90.0,90.0,90.0,cubic,Pm-3m,-3.133445372,0.908881399,1.4474,Ho,Er,O
mp-770415,Ho1 Er1 O3,6.378581955,6.378581955,12.674862,90.0,90.0,119.9999995,hex_,P6_3cm,-3.949382929,0.092943842,3.0794,Ho,Er,O
mp-19785,Ho1 Fe1 O3,5.25636467,5.60062622,7.60683986,90.0,90.0,90.0,ortho,Pnma,-2.855059119,0.012266279,1.5675,Ho,Fe,O
mp-1212057,Ho1 Ga3 Os1,6.36697945,6.36697945,6.36697945,90.0,90.0,90.0,cubic,Pm-3m,-0.482699123,0.0,0.0,Ho,Os,Ga
mp-1104547,Ho1 Ga3 Ru1,6.36198614,6.36198614,6.36198614,90.0,90.0,90.0,cubic,Pm-3m,-0.583211192,0.0,0.0,Ho,Ru,Ga
mp-755416,Ho1 Ga1 O3,5.283774,5.59309,7.634112,90.0,90.0,90.0,ortho,Pnma,-3.137672761,0.049537561,3.6066,Ho,Ga,O
mp-769045,Ho1 Ga1 O3,6.013364412,6.013364682,11.63625179,89.99998584,89.99998602,119.999624,hex_,P6_3cm,-3.168367699,0.018842624,2.884,Ho,Ga,O
mp-982558,Ho1 Ge1 O3,3.904923,3.904923,3.904923,90.0,90.0,90.0,cubic,Pm-3m,-2.352758181,0.698465031,0.0,Ho,Ge,O
mp-768267,Ho1 In1 O3,6.263086282,6.263079561,12.2455948,90.00000413,89.99999706,120.000113,hex_,P6_3cm,-3.001009272,0.009804144,1.978,Ho,In,O
mp-776984,Ho1 In1 O3,5.52587,5.85997,8.188104,90.0,90.0,90.0,ortho,Pnma,-2.939101062,0.071712354,2.9036,Ho,In,O
mp-770472,Ho1 Lu1 O3,5.576018,5.849431,8.258771,90.0,90.0,90.0,ortho,Pnma,-3.993262639,0.082408869,4.9114,Ho,Lu,O
mp-1232139,Ho1 Mg1 S3,6.96737106,6.96737106,6.649038956,76.85721342,76.85721342,118.9326283,mono,C2/m,-1.505898973,0.355510138,0.0,Ho,Mg,S