mp_id,formula,sites,composition,a_edge (angstrom),b_edge (angstrom),c_edge (angstrom),alpha_ang (deg),beta_ang (deg),gamma_ang (deg),crystal_system,space_group,total_magnetisation (bohr),energy_per_atom (eV/atom),formation_energy (eV/atom),energy_above_hull (eV/atom),stable,density (g/cc),band_gap (eV),direct_bandgap,volume (cubic-angstrom),bulk_modulus (GPa),shear_modulus (GPa)
mp-998235,CsTlF3,5,Cs1 Tl1 F3,4.796435357,4.796435357,4.796722,90,90,90.15156832,ortho,Amm2,0.0037335,-19.88837397,-2.358479414,0.064264036,FALSE,5.93304972,0,FALSE,110.3520032,,
mp-998240,CsTlF3,10,Cs1 Tl1 F3,3.907275,5.525721,9.570829,90,90,90,ortho,Amm2,0.0005672,-19.07492935,-1.545034793,0.877708657,FALSE,6.336883398,0,FALSE,206.6390938,,
mp-1112542,CsTlI3,10,Cs1 Tl1 I3,8.931266349,8.931266349,8.931266349,60,60,60,cubic,Fm-3m,0.0013967,-2.647737672,-1.079289856,0.06025468,FALSE,4.733481886,0,FALSE,503.7605165,,
mp-1185544,CsTlO3,5,Cs1 Tl1 O3,4.535003,4.535003,4.535003,90,90,90,cubic,Pm-3m,2.0013608,-4.37959604,-0.75677919,0.355340395,FALSE,6.859629555,0,FALSE,93.26801547,,
mp-1206103,CsTmBr3,10,Cs1 Tm1 Br3,7.916547,7.916547,5.622052,90,90,90,tet,P4/mbm,0.0977131,-3.945766732,-1.887352691,0.124449515,FALSE,5.104492134,0,FALSE,352.3436485,,
mp-579768,CsTmCl3,5,Cs1 Tm1 Cl3,5.312188,5.312188,5.312188,90,90,90,cubic,Pm-3m,1.25E-05,-17.84042752,-2.104913611,0.201543685,FALSE,4.521685631,0,FALSE,149.9064465,,
mp-1207081,CsTmH3,5,Cs1 Tm1 H3,4.451799,4.451799,4.451799,90,90,90,cubic,Pm-3m,0.0003232,-14.37979751,-0.262679505,0.318203783,FALSE,5.737832422,0,FALSE,88.2280423,,
mp-1213177,CsTmI3,20,Cs1 Tm1 I3,8.327171,8.702211,12.145298,90,90,90,ortho,Pnma,0.0269189,-3.406957912,-1.416304223,0.203747276,FALSE,5.151221762,0,FALSE,880.1065793,,
mp-2647024,CsUBr3,5,Cs1 U1 Br3,5.786103,5.786103,5.786103,90,90,90,cubic,Pm-3m,3.9998954,-4.909576282,-1.489380535,0.285750127,FALSE,5.234562509,0,FALSE,193.7128725,,
mp-865424,CsUO3,5,Cs1 U1 O3,4.415419,4.415419,4.415419,90,90,90,cubic,Pm-3m,0.9998264,-8.625488812,-3.218684383,0.021469604,FALSE,8.081229652,0.4571,FALSE,86.08267743,"{'voigt': 129.135, 'reuss': 129.135, 'vrh': 129.135}","{'voigt': 72.565, 'reuss': 68.698, 'vrh': 70.632}"
mp-23038,CsVBr3,10,Cs1 V1 Br3,7.62723314,7.62723262,6.47467011,90,90,119.9999977,hex_,P6_3/mmc,6.0000001,-4.563302533,-1.584607574,0,TRUE,4.312316786,0.6528,FALSE,326.1987565,,
mp-22977,CsVCl3,10,Cs1 V1 Cl3,7.23788792,7.23789468,6.19426413,90,90,120.0000255,hex_,P6_3/mmc,6.0000008,-13.44505887,-1.915839475,0,TRUE,3.429580927,0.4835,FALSE,281.0246096,,
mp-22991,CsVI3,10,Cs1 V1 I3,8.23111885,8.231118579,6.9510579,90,90,119.9862189,hex_,P6_3/mmc,6.000001,-4.053066899,-1.142132292,0,TRUE,4.596528052,0.5973,FALSE,407.9054999,,
mp-504651,CsVO3,20,Cs1 V1 O3,5.45086244,5.79445238,12.27054304,90,90,90,ortho,Pbcm,0,-7.382710907,-2.417407265,0,TRUE,3.973431261,3.1105,FALSE,387.5621918,,
mp-1206517,Cu3PdN,5,Cu3 Pd1 N1,3.878729,3.878729,3.878729,90,90,90,cubic,Pm-3m,1.54E-05,-12.88944896,0.036469496,0.116097427,FALSE,8.851798421,0,FALSE,58.35368837,,
mp-1207194,Cu3RhN,5,Cu3 Rh1 N1,3.848768,3.848768,3.848768,90,90,90,cubic,Pm-3m,0.0417582,-12.90727045,0.253803013,0.253803013,FALSE,8.9577701,0,FALSE,57.01185857,,
mp-1207091,Cu3RuN,5,Cu3 Ru1 N1,3.870965,3.870965,3.870965,90,90,90,cubic,Pm-3m,1.7192297,-12.9076023,0.511132489,0.511132489,FALSE,8.752007589,0,FALSE,58.00397194,,
mp-1181705,Cu3SnAu,20,Cu3 Sn1 Au1,6.858327,6.858327,6.858327,90,90,90,cubic,P2_13,0.0027876,-3.811943376,0.104271397,0.177989456,FALSE,10.42497324,0,FALSE,322.5927215,,
mp-1188802,CuAgF3,20,Cu1 Ag1 F3,5.645573,5.661939717,8.039587759,89.46093088,89.74177006,88.83931961,tri,P-1,1.4584229,-9.839079538,-1.524352184,0.017362095,FALSE,5.905115805,0,FALSE,256.918076,,
mp-998414,CuAgF3,5,Cu1 Ag1 F3,4.008428,4.008428,4.008428,90,90,90,cubic,Pm-3m,0.7982092,-9.821512771,-1.506785417,0.034928862,FALSE,5.888990141,0,FALSE,64.40539697,"{'voigt': 86.522, 'reuss': 86.522, 'vrh': 86.522}","{'voigt': 21.469, 'reuss': 21.209, 'vrh': 21.339}"
mp-998422,CuAgF3,10,Cu1 Ag1 F3,5.513262492,5.513262492,5.513262793,60.9361972,60.9361972,60.93618287,trig,R-3c,1.9999983,-9.856441633,-1.541714279,0,TRUE,6.269244001,0,FALSE,120.9979218,,
mp-1178368,CuAsO3,10,Cu1 As1 O3,3.214367,4.931474,8.974303,90,90,90,ortho,Pmma,0.0021135,-5.997871351,-1.275228908,0.078447759,FALSE,4.353167166,0,FALSE,142.2567679,,
mp-776320,CuAsO3,10,Cu1 As1 O3,5.787770911,5.787770911,5.787771351,51.32919719,51.32919719,51.32920558,trig,R-3,0.0001056,-5.981437807,-1.258795363,0.094881303,FALSE,5.676387281,0,FALSE,109.095356,"{'voigt': -4815394094049.069, 'reuss': -494.035, 'vrh': -2407697047271.552}","{'voigt': 12748855871357.418, 'reuss': -1166.242, 'vrh': 6374427935095.588}"
mp-1184042,CuBO3,5,Cu1 B1 O3,3.350959,3.350959,3.350959,90,90,90,cubic,Pm-3m,1.9710161,-5.821350108,-0.696853817,1.128113087,FALSE,5.399632296,0,FALSE,37.62767138,,
mp-1184051,CuBiO3,5,Cu1 Bi1 O3,3.850058,3.850058,3.850058,90,90,90,cubic,Pm-3m,0.001544,-5.659147852,-1.092523053,0.17206631,FALSE,9.326284254,0,FALSE,57.06920415,,
mp-1080068,CuCO3,10,Cu1 C1 O3,5.386227,2.865461,9.31109154,80.65199597,90,90,mono,P2_1,0.0484955,-6.943846078,-1.309495043,0.129320376,FALSE,2.893779237,0,FALSE,141.799164,,
mp-1178374,CuCO3,10,Cu1 C1 O3,4.357999,4.873467383,6.51079155,72.86113302,72.74109277,67.94206617,tri,P-1,1.1740626,-6.988052127,-1.353701092,0.085114327,FALSE,3.427017913,0,FALSE,119.7354339,,
mp-27249,CuCO3,5,Cu1 C1 O3,4.641418242,4.641418242,3.091536745,82.3263195,82.3263195,62.5768432,mono,Cm,0.9726378,-6.932755776,-1.298404741,0.140410678,FALSE,3.513737236,0,FALSE,58.39017677,,
mp-758727,CuCO3,45,Cu1 C1 O3,3.380512,13.83440844,13.84116736,60.19424392,88.8172512,88.79106882,tri,P1,3.2025246,-6.94455297,-1.310201934,0.128613484,FALSE,3.288401615,0,FALSE,561.521937,,
mp-760536,CuCO3,15,Cu1 C1 O3,8.105772215,8.104706158,3.258269,90,90,119.9193836,hex_,P-6,1.0000012,-6.934245517,-1.299894482,0.138920937,FALSE,3.317636992,0,FALSE,185.5245816,,
mp-760595,CuCO3,20,Cu1 C1 O3,6.804157,6.217696,8.255992178,53.16552501,90,90,mono,P2_1/c,3.9995296,-6.970161019,-1.335809983,0.103005435,FALSE,2.935653187,0.0463,FALSE,279.5531015,,
mp-1096939,CuGeI3,10,Cu1 Ge1 I3,7.940096031,7.940096031,7.940096031,118.6404425,118.6404425,92.37140826,tet,I4/mcm,0.0007898,-2.695035615,-0.036181141,0.458181769,FALSE,4.756537729,0.0895,TRUE,360.9060677,,
mp-1096949,CuGeI3,5,Cu1 Ge1 I3,6.32561474,6.32561474,4.333096733,87.31819853,87.31819853,102.5919721,mono,Cm,0.000139,-2.898231252,-0.239376778,0.254986132,FALSE,5.086793921,0.6691,FALSE,168.7372591,,
mp-1181557,CuGeO3,10,Cu1 Ge1 O3,4.409282,11.702809,3.017142,90,90,90,ortho,Pmma,2.0006675,-6.000480524,-1.287257016,0.383854359,FALSE,3.928961039,0,FALSE,155.6874993,,
mp-1181636,CuGeO3,20,Cu1 Ge1 O3,5.025420323,8.253362,5.962912647,90,89.90039487,90,ortho,Pmna,4.0191709,-6.29691779,-1.583694282,0.087417093,FALSE,4.946527001,0.2041,FALSE,247.3210473,,
mp-1202570,CuGeO3,80,Cu1 Ge1 O3,8.69434,9.836501,11.94106,90,90,90,ortho,Pbam,7.9985024,-6.3117136,-1.598490092,0.072621283,FALSE,4.791829,0,FALSE,1021.221949,,
mp-21344,CuGeO3,10,Cu1 Ge1 O3,2.980992,4.942222,8.745921,90,90,90,ortho,Pmma,2.0001574,-6.304190812,-1.590967304,0.080144071,FALSE,4.747258217,0,FALSE,128.8512424,,
mp-554624,CuGeO3,80,Cu1 Ge1 O3,8.745921,9.884445,11.923969,90,90,90,ortho,Pnnm,7.9956742,-6.311836853,-1.598613345,0.07249803,FALSE,4.747257339,0.4475,TRUE,1030.81013,,
mp-554874,CuGeO3,20,Cu1 Ge1 O3,6.855736,4.926898,6.30641935,86.37590648,90,90,mono,P2_1/c,3.9993059,-6.243712676,-1.530489167,0.140622208,FALSE,5.75466854,0,FALSE,212.5891752,,
mp-561216,CuGeO3,40,Cu1 Ge1 O3,7.738221038,7.738221038,8.71447,90,90,100.6486775,ortho,Cmce,0.0091074,-6.315592041,-1.602368533,0.068742842,FALSE,4.771033596,0,FALSE,512.8365641,,
mp-1184044,CuHgO3,5,Cu1 Hg1 O3,3.83172,3.83172,3.83172,90,90,90,cubic,Pm-3m,0.6891766,-4.198000504,-0.34744816,0.332513583,FALSE,9.213171514,0,FALSE,56.25761252,,
mp-1105578,CuNCl3,20,Cu1 N1 Cl3,14.021445,4.253974,9.565677962,75.12722352,90,90,mono,P2_1/c,11.0647634,-7.11834417,0.568228503,0.97024402,FALSE,2.215205716,0.2599,FALSE,551.4477694,,
mp-1080799,CuNF3,5,Cu1 N1 F3,3.887755,3.887755,3.887755,90,90,90,cubic,Pm-3m,2.3233711,-3.882089022,-0.247704758,0.940227257,FALSE,3.802151226,0,FALSE,58.76201311,,
mp-1017556,CuNi3N,5,Cu1 Ni3 N1,3.70207231,3.70208553,3.70222455,90,90,90,cubic,Pm-3m,1.0067557,-11.21189493,-0.027755304,0,TRUE,8.300429842,0,FALSE,50.74042514,,
mp-766856,CuPO3,40,Cu1 P1 O3,4.734167,10.856542,12.18082849,59.5700908,90,90,mono,P2_1/c,0.0004921,-6.774967524,-1.903254882,0.106027886,FALSE,3.507226956,0.946,FALSE,539.8148373,,
mp-772192,CuPO3,40,Cu1 P1 O3,5.571966,7.610752,14.08549922,61.95793167,90,90,mono,P2_1/c,9.55E-05,-6.792651255,-1.920938613,0.088344155,FALSE,3.591163567,1.7481,FALSE,527.1976932,,
mp-772255,CuPO3,30,Cu1 P1 O3,9.703327465,9.703327465,9.703328055,114.8962175,114.8962175,114.8962128,trig,R-3,0.0012668,-6.853014277,-1.981301635,0.027981133,FALSE,2.751226779,2.0492,FALSE,516.1115298,,
mp-1105187,CuPS3,20,Cu1 P1 S3,5.31083413,5.31083413,14.90440863,90,90,90,tet,P4_2/mnm,0,-9.091445678,-0.300671766,0,TRUE,3.013374959,1.1555,FALSE,420.3782367,,
mp-1096790,CuPbBr3,10,Cu1 Pb1 Br3,7.998025077,7.998025077,7.998025077,119.3989145,119.3989145,91.04430225,tet,I4/mcm,0.0004687,-3.061815378,-0.517276709,0.465794449,FALSE,4.644681915,0,TRUE,364.9918192,,
mp-1184117,CuPbO3,5,Cu1 Pb1 O3,3.873189,3.873189,3.873189,90,90,90,cubic,Pm-3m,0.0027853,-5.448978686,-0.917831335,0.250703104,FALSE,9.109306586,0,FALSE,58.10400511,,
mp-1184073,CuPdO3,5,Cu1 Pd1 O3,3.793113,3.793113,3.793113,90,90,90,cubic,Pm-3m,0.0026437,-4.919253298,-0.094658999,0.718975019,FALSE,6.632036727,0,FALSE,54.57419554,,
mp-28741,CuSe3Br,20,Cu1 Se3 Br1,4.80714032,7.58594412,14.37169294,90,90,90,ortho,Pmna,0,-3.780614001,-0.535836473,0,TRUE,4.820202726,1.0299,FALSE,524.088184,,
mp-29450,CuSe3I,30,Cu1 Se3 I1,9.6005471,9.6005471,9.600547156,95.28363138,95.28363138,95.28363112,trig,R-3m,0.0055615,-3.390994607,-0.168803863,0.125586228,FALSE,4.877756662,1.2273,FALSE,872.8589664,,
mp-22414,CuSeO3,20,Cu1 Se1 O3,5.476776,6.151551,7.306758,90,90,90,ortho,Pnma,4.0057562,-5.554540329,-1.066740096,0.028767922,FALSE,5.140191657,0,FALSE,246.1695497,"{'voigt': 33.473, 'reuss': 20.768, 'vrh': 27.12}","{'voigt': 32.228, 'reuss': 24.54, 'vrh': 28.384}"
mp-22688,CuSeO3,40,Cu1 Se1 O3,5.94944534,6.99177858,12.25358662,90,90,90,ortho,Pbca,7.9999991,-5.570611124,-1.082810892,0.012697127,FALSE,4.964965889,0.2102,FALSE,509.7149484,,
mp-554440,CuSeO3,40,Cu1 Se1 O3,8.27492805,7.7047169,10.61491645,52.53399415,90,90,mono,P2_1/c,8.0000001,-5.572037848,-1.084237615,0.011270403,FALSE,4.711312329,0.0215,FALSE,537.157623,,
mp-560049,CuSeO3,30,Cu1 Se1 O3,4.731052859,8.673454122,10.57942599,113.0444262,91.7488845,88.98153431,tri,P-1,6,-5.580940329,-1.093140096,0.002367922,FALSE,4.753581998,0,FALSE,399.2858437,,
mp-16053,CuSiO3,10,Cu1 Si1 O3,2.860253,4.918236,8.958139,90,90,90,ortho,Pmma,2.0111634,-7.123297562,-2.249616019,0.091200764,FALSE,3.679809082,0.112,FALSE,126.0177181,"{'voigt': 45.23, 'reuss': 17.677, 'vrh': 31.454}","{'voigt': 33.621, 'reuss': 6.35, 'vrh': 19.986}"
mp-556982,CuSiO3,30,Cu1 Si1 O3,8.83105112,8.83541179,8.831557919,111.6876645,111.8559547,111.627429,trig,R-3,5.9998599,-7.146320468,-2.272638925,0.068177859,FALSE,2.891164803,0,FALSE,481.1774924,,
mp-20977,CuTeO3,20,Cu1 Te1 O3,5.821665,6.069741,7.200504,90,90,90,ortho,Pnma,3.9988747,-5.632032828,-1.214753712,0.059400267,FALSE,6.242933005,0,FALSE,254.4370003,,
mp-4320,CuTeO3,40,Cu1 Te1 O3,6.016914,7.677819,12.882924,90,90,90,ortho,Pnma,0.0001421,-5.646589092,-1.229309977,0.044844003,FALSE,5.337929311,0.0016,TRUE,595.1495624,,
mp-558696,CuTeO3,20,Cu1 Te1 O3,9.356216,5.290517,7.569102905,51.93507318,90,90,mono,P2_1/c,0.0095411,-5.656018842,-1.238739726,0.035414253,FALSE,5.38491661,0.0019,TRUE,294.9782256,,
mp-29676,Dy3AlC,5,Dy3 Al1 C1,4.8703325,4.8703325,4.8703325,90,90,90,cubic,Pm-3m,4.00E-07,-5.741221932,-0.37534835,0,TRUE,7.567723145,0,FALSE,115.5249622,,
mp-1017557,Dy3AlN,5,Dy3 Al1 N1,4.75093043,4.75093043,4.75093043,90,90,90,cubic,Pm-3m,3.04E-05,-23.44896098,-1.087709249,0,TRUE,8.183675708,0,FALSE,107.2348658,,
mp-20922,Dy3GaC,5,Dy3 Ga1 C1,5.300761,5.300761,5.300761,90,90,90,cubic,Pm-3m,3.56E-05,-4.02667787,1.19569975,1.606714689,FALSE,6.34636478,0,FALSE,148.9411387,,
mp-19881,Dy3InC,5,Dy3 In1 C1,4.9031569,4.9031569,4.9031569,90,90,90,cubic,Pm-3m,2.00E-06,-5.654029088,-0.485435924,0,TRUE,8.654112371,0,FALSE,117.876538,,
mp-31056,Dy3InN,5,Dy3 In1 N1,4.79206634,4.79206634,4.79206634,90,90,90,cubic,Pm-3m,2.89E-05,-26.73381282,-1.203262677,0,TRUE,9.3001554,0,FALSE,110.0445313,,
mp-19818,Dy3PbC,5,Dy3 Pb1 C1,4.89301389,4.89301389,4.89301492,90,90,90,cubic,Pm-3m,9.50E-06,-5.89106458,-0.53177675,0,TRUE,10.01754558,0,FALSE,117.1465323,,
mp-19899,Dy3SnC,5,Dy3 Sn1 C1,4.87069979,4.87069979,4.87069979,90,90,90,cubic,Pm-3m,3.00E-06,-6.039251322,-0.620578535,0,TRUE,8.884204632,0,FALSE,115.5511007,,
mp-22513,Dy3TlC,5,Dy3 Tl1 C1,5.613253,5.613253,5.613253,90,90,90,cubic,Pm-3m,0.0046947,-3.465007924,1.626044915,1.916393434,FALSE,6.60864631,0,FALSE,176.8657954,,
mp-754936,DyAlO3,10,Dy1 Al1 O3,5.237056292,5.237056292,5.237056611,60.91956114,60.91956114,60.91956644,trig,R-3c,0.0001008,-8.359551958,-3.717985083,0.040794405,FALSE,7.60764874,5.166,FALSE,103.6705024,,
mp-756630,DyAlO3,20,Dy1 Al1 O3,5.16840341,5.31063225,7.37199326,90,90,90,ortho,Pnma,0,-8.38752288,-3.745956005,0.012823483,FALSE,7.795573824,5.723,TRUE,202.34271,"{'voigt': 192.717, 'reuss': 191.133, 'vrh': 191.925}","{'voigt': 115.835, 'reuss': 110.806, 'vrh': 113.32}"
mp-984723,DyAlO3,5,Dy1 Al1 O3,3.711247,3.711247,3.711247,90,90,90,cubic,Pm-3m,0.0001489,-8.25859651,-3.617029635,0.141749853,FALSE,7.714647396,2.9483,FALSE,51.11631981,,
mp-1206856,DyB3Mo,10,Dy1 B3 Mo1,3.15925114,5.430907745,6.840336519,77.83532261,90,90,mono,P2_1/m,0,-16.68311189,-0.664542838,0,TRUE,8.419983894,0,FALSE,114.7284807,,
mp-10792,DyBO3,60,Dy1 B1 O3,7.155247078,8.944948492,9.775783951,81.33689321,85.63635558,77.3015009,tri,P-1,1.00E-07,-8.723935747,-3.495605684,0.028402723,FALSE,7.315524467,5.0542,FALSE,602.8154084,,
mp-12315,DyBO3,20,Dy1 B1 O3,6.106156805,6.356277026,6.352441828,92.32161557,108.4751828,107.811875,tri,P-1,0,-8.75233847,-3.524008407,0,TRUE,6.680369873,5.3594,TRUE,220.0432487,,
mp-753318,DyBO3,10,Dy1 B1 O3,3.956124733,3.956124733,8.671067,90,90,117.3527522,ortho,Ama2,0,-8.692332451,-3.464002388,0.060006018,FALSE,6.097586218,4.514,FALSE,120.5370647,,
mp-10060,DyBPd3,5,Dy1 B1 Pd3,4.319571,4.319571,4.319571,90,90,90,cubic,Pm-3m,0.0041807,-22.30203584,-0.660132186,0.11293425,FALSE,10.14836517,0,FALSE,80.59755188,"{'voigt': 143.573, 'reuss': 143.573, 'vrh': 143.573}","{'voigt': 26.841, 'reuss': 7.187, 'vrh': 17.014}"
mp-3183,DyBRh3,5,Dy1 B1 Rh3,4.17299336,4.17299336,4.17299336,90,90,90,cubic,Pm-3m,0.6675759,-7.471840072,-0.79370189,0,TRUE,11.01483085,0,FALSE,72.66797883,"{'voigt': 183.388, 'reuss': 183.388, 'vrh': 183.388}","{'voigt': 89.122, 'reuss': 83.055, 'vrh': 86.089}"
mp-1207000,DyBiO3,5,Dy1 Bi1 O3,4.422165,4.422165,4.422165,90,90,90,cubic,Pm-3m,0.0003205,-6.355123798,-1.684665227,1.13872127,FALSE,8.054787334,0,FALSE,86.47783908,,
mp-22137,DyCoO3,20,Dy1 Co1 O3,5.12056865,5.41427635,7.3530512,90,90,90,ortho,Pnma,0.0003997,-7.927326137,-2.608191084,0.009307952,FALSE,8.778717764,1.1924,FALSE,203.857269,,
mp-19381,DyCrO3,20,Dy1 Cr1 O3,5.23463434,5.53590021,7.54140459,90,90,90,ortho,Pnma,12.0000008,-9.043801588,-3.220740385,0,TRUE,7.97814862,2.4922,FALSE,218.5379394,,
mp-1225651,DyCrS3,40,Dy1 Cr1 S3,3.70122,12.991488,16.20422,90,90,90,ortho,Pnnm,24.0042963,-6.903752555,-1.566452214,0.115568589,FALSE,5.29707314,0.2275,TRUE,779.1694705,,
mp-1212865,DyCrSb3,20,Dy1 Cr1 Sb3,6.035755,6.202342,12.765264,90,90,90,ortho,Pbcm,8.3916948,-5.85698596,-0.525300616,0.019761747,FALSE,8.058464255,0,FALSE,477.8780837,,
mp-1212890,DyCrSe3,20,Dy1 Cr1 Se3,3.890608,8.230338,13.270285,90,90,90,ortho,Pnma,12.0017607,-6.388690331,-1.436858844,0.037519855,FALSE,7.055572389,0.1166,TRUE,424.9280463,,
mp-1183771,DyCuO3,5,Dy1 Cu1 O3,3.775498,3.775498,3.775498,90,90,90,cubic,Pm-3m,0.0004047,-6.945122254,-2.232829211,0.225766218,FALSE,8.455649622,0,FALSE,53.81740262,,
mp-772188,DyErO3,30,Dy1 Er1 O3,6.411861673,6.411861673,12.700567,90,90,119.9999966,hex_,P6_3cm,5.31E-05,-8.752872202,-3.946876732,0.084193207,FALSE,8.32321385,3.0953,FALSE,452.1911364,,
mp-22283,DyFeO3,20,Dy1 Fe1 O3,5.27661581,5.6138646,7.62092487,90,90,90,ortho,Pnma,20.0067112,-8.436198846,-2.849742895,0.006325671,FALSE,7.836562719,0.9134,TRUE,225.7486118,,
mp-1225592,DyGa3Cu,5,Dy1 Ga3 Cu1,6.041687863,6.041687863,6.041687863,140.9396304,140.9396304,56.42934405,tet,I-4m2,0,-15.96344555,-0.532060131,0,TRUE,8.318990922,0,FALSE,86.87249652,,
mp-1105019,DyGa3Ru,15,Dy1 Ga3 Ru1,6.37718383,6.37718383,6.37718383,90,90,90,cubic,Pm-3m,6.00E-07,-5.180565354,-0.585152127,0,TRUE,9.080399909,0,FALSE,259.3503322,,
mp-755612,DyGaO3,20,Dy1 Ga1 O3,5.307153,5.597165,7.63874,90,90,90,ortho,Pnma,0.0003794,-7.629691777,-3.131620863,0.048170023,FALSE,8.202734055,3.6351,TRUE,226.9088559,,
mp-769015,DyGaO3,30,Dy1 Ga1 O3,6.12098791,6.12098791,11.7204,90,90,119.999999,hex_,P6_3cm,0.0011585,-7.653000484,-3.154929571,0.024861315,FALSE,7.341507103,2.8765,FALSE,380.2910574,,
mp-1225852,DyGaSe3,20,Dy1 Ga1 Se3,3.934719,7.923808,16.254568,90,90,90,ortho,Pnma,0.0003651,-18.48677389,-1.214921918,0.216811333,FALSE,6.148287981,0.0191,TRUE,506.7842366,,
mp-768145,DyHoO3,30,Dy1 Ho1 O3,6.42343981,6.42343981,12.747755,90,90,119.999998,hex_,P6_3cm,0.0001668,-8.738186537,-3.926198936,0.090103677,FALSE,8.211602966,3.0556,FALSE,455.5118362,,
mp-1178360,DyInO3,20,Dy1 In1 O3,5.521777,5.866607,8.191486,90,90,90,ortho,Pnma,0.0003398,-7.379810134,-2.935523677,0.064032907,FALSE,8.143033596,2.623,TRUE,265.3557806,,
mp-1183823,DyInO3,5,Dy1 In1 O3,4.121735,4.121735,4.121735,90,90,90,cubic,Pm-3m,0.0003027,-6.745079848,-2.300793391,0.698763193,FALSE,7.714620906,1.5367,FALSE,70.02291696,,
mp-768149,DyInO3,30,Dy1 In1 O3,6.28807684,6.288076821,12.27113037,89.99999556,90.00000379,120.0001173,hex_,P6_3cm,0,-7.439521238,-2.995234781,0.004321803,FALSE,7.713574372,1.9871,FALSE,420.1945037,,
mp-756469,DyLuO3,20,Dy1 Lu1 O3,5.61251,5.876143,8.23375,90,90,90,ortho,Pnma,2.31E-05,-8.785891342,-3.989102143,0.075312533,FALSE,9.42859767,4.967,TRUE,271.5483451,,
mp-1232163,DyMgS3,10,Dy1 Mg1 S3,6.91811103,6.91811103,6.765345977,73.49576855,73.49576855,111.5397522,mono,C2/m,1.9998832,-5.279874477,-1.547089628,0.31352235,FALSE,3.615581096,0.2099,FALSE,259.9485634,,
mp-1232195,DyMgS3,30,Dy1 Mg1 S3,6.67677,6.676770489,18.130227,90,90,119.9999976,trig,R-3,4.5701902,-5.359150817,-1.626365968,0.23424601,FALSE,4.028283575,0,FALSE,699.9495648,,
mp-1232192,DyMgSe3,20,Dy1 Mg1 Se3,7.292361964,12.93289,7.49556724,90,123.7666401,90,mono,C2/m,0.0028652,-4.724518586,-1.37720259,0.343004321,FALSE,4.788745909,0,FALSE,587.6657545,,
mp-1232257,DyMgSe3,30,Dy1 Mg1 Se3,6.908529,6.908529082,19.341285,90,90,119.9999948,trig,R-3,2.8475502,-4.844564726,-1.49724873,0.22295818,FALSE,5.280271853,0,FALSE,799.4423553,,
mp-1238023,DyMgSe3,10,Dy1 Mg1 Se3,7.288848066,7.288848066,6.740159699,73.20993485,73.20993485,110.8531222,mono,C2/m,0.0005722,-4.771654079,-1.424338084,0.295868827,FALSE,4.885239708,0,FALSE,288.0290575,,
mp-1188804,DyMnO3,20,Dy1 Mn1 O3,3.400136,6.008605,12.99438,90,90,90,ortho,Pnma,16.0059018,-8.458508735,-2.733653967,0.323793291,FALSE,6.641157922,1.0173,TRUE,265.4761472,,
mp-22103,DyMnO3,20,Dy1 Mn1 O3,5.330322,5.867879,7.499174,90,90,90,ortho,Pnma,16.0023262,-8.759999455,-3.035144687,0.022302571,FALSE,7.516597381,0.4134,FALSE,234.5567986,,
mp-542479,DyMnO3,30,Dy1 Mn1 O3,6.136044374,6.136044411,11.42852703,89.99999992,90.0000001,119.9995203,hex_,P6_3cm,24.0000003,-8.782302026,-3.057447259,0,TRUE,7.09676781,0,FALSE,372.649014,,
mp-1087478,DyNiGe3,10,Dy1 Ni1 Ge3,10.9250475,10.9250475,4.07458642,90,90,158.5920398,ortho,Cmmm,0,-5.425866614,-0.572347459,0,TRUE,8.215337684,0,FALSE,177.5130818,,