mp_id,formula,sites,composition,a_edge (angstrom),b_edge (angstrom),c_edge (angstrom),alpha_ang (deg),beta_ang (deg),gamma_ang (deg),crystal_system,space_group,total_magnetisation (bohr),energy_per_atom (eV/atom),formation_energy (eV/atom),energy_above_hull (eV/atom),stable,density (g/cc),band_gap (eV),direct_bandgap,volume (cubic-angstrom),bulk_modulus (GPa),shear_modulus (GPa)
mp-8868,Ba3NaN,10,Ba3 Na1 N1,8.543396245,8.543394286,6.98639627,90.00001887,89.99999685,120.0000188,hex_,P6_3/mmc,0.0054364,-3.419354647,-0.331969978,0,TRUE,3.376438755,0,FALSE,441.6159639,"{'voigt': -372228450.435, 'reuss': -379107348.269, 'vrh': -375667899.352}","{'voigt': 206177395.595, 'reuss': -18028.071, 'vrh': 103079683.762}"
mp-1013533,Ba3PN,5,Ba3 P1 N1,5.450726,5.450726,5.450726,90,90,90,cubic,Pm-3m,6.29E-05,-4.538411764,-0.636276546,0.139411427,FALSE,4.685604402,0,FALSE,161.9433257,"{'voigt': 40.54, 'reuss': 40.54, 'vrh': 40.54}","{'voigt': 28.14, 'reuss': 26.423, 'vrh': 27.282}"
mp-1013707,Ba3PN,5,Ba3 P1 N1,6.06005,6.06005,6.06005,90,90,90,cubic,Pm-3m,0.0002072,-3.644830316,0.257304902,1.032992875,FALSE,3.409573449,0,FALSE,222.5505246,,
mp-29242,Ba3PbO,5,Ba3 Pb1 O1,5.52184574,5.52184574,5.52184574,90,90,90,cubic,Pm-3m,2.50E-06,-4.375894106,-1.492387527,0,TRUE,6.264600434,0,FALSE,168.3653857,,
mp-1013562,Ba3SbAs,5,Ba3 Sb1 As1,6.217785,6.217785,6.217785,90,90,90,cubic,Pm-3m,0.0016743,-3.765989692,-0.854779974,0.227838953,FALSE,4.204541194,0.1487,TRUE,240.3848551,,
mp-1013714,Ba3SbAs,5,Ba3 Sb1 As1,6.492956,6.492956,6.492956,90,90,90,cubic,Pm-3m,0.0001084,-3.370630302,-0.459420584,0.623198343,FALSE,3.692311515,0,FALSE,273.7331402,"{'voigt': 19.616, 'reuss': 19.616, 'vrh': 19.616}","{'voigt': 13.958, 'reuss': 6.628, 'vrh': 10.293}"
mp-1013557,Ba3SbN,5,Ba3 Sb1 N1,5.573581,5.573581,5.573581,90,90,90,cubic,Pm-3m,5.25E-05,-4.51522533,-0.870384569,0.055228377,FALSE,5.253233547,0,FALSE,173.1422078,,
mp-1013708,Ba3SbN,5,Ba3 Sb1 N1,6.52,6.52,6.52,90,90,90,cubic,Pm-3m,0.0007933,-3.173536556,0.471304205,1.396917151,FALSE,3.281609293,0,FALSE,277.167808,"{'voigt': 17.51, 'reuss': 17.51, 'vrh': 17.51}","{'voigt': 11.561, 'reuss': 3.815, 'vrh': 7.688}"
mp-12814,Ba3SbN,10,Ba3 Sb1 N1,7.62952326,7.629524376,6.73699565,90,90,119.9999952,hex_,P6_3/mmc,0,-4.570453707,-0.925612946,0,TRUE,5.356336708,0.4555,TRUE,339.6188492,,
mp-1013712,Ba3SbP,5,Ba3 Sb1 P1,6.483458,6.483458,6.483458,90,90,90,cubic,Pm-3m,0.0032569,-3.363138898,-0.302858981,0.73575235,FALSE,3.440789725,0,FALSE,272.5336329,"{'voigt': 19.718, 'reuss': 19.718, 'vrh': 19.718}","{'voigt': 13.917, 'reuss': 6.092, 'vrh': 10.005}"
mp-1013737,Ba3SbP,5,Ba3 Sb1 P1,6.113177,6.113177,6.113177,90,90,90,cubic,Pm-3m,0.0002717,-3.942252384,-0.881972467,0.156638864,FALSE,4.1046613,0.2992,TRUE,228.4551283,,
mp-754940,Ba3SiO,5,Ba3 Si1 O1,5.423827,5.423827,5.423827,90,90,90,cubic,Pm-3m,6.93E-05,-4.491329226,-1.265288455,0.051504253,FALSE,4.746344015,0,FALSE,159.5575966,"{'voigt': 39.278, 'reuss': 39.278, 'vrh': 39.278}","{'voigt': 26.853, 'reuss': 26.659, 'vrh': 26.756}"
mp-755363,Ba3SiO,20,Ba3 Si1 O1,7.57657891,7.6982159,10.80878583,90,90,90,ortho,Pnma,0,-4.542833479,-1.316792708,0,TRUE,4.805034838,0.4217,FALSE,630.4347581,,
mp-29243,Ba3SnO,5,Ba3 Sn1 O1,5.50211613,5.50211613,5.50211613,90,90,90,cubic,Pm-3m,1.40E-06,-4.474396678,-1.531505142,0,TRUE,5.45006005,0,FALSE,166.5671127,"{'voigt': 36.771, 'reuss': 36.771, 'vrh': 36.771}","{'voigt': 25.933, 'reuss': 25.872, 'vrh': 25.902}"
mp-1183283,BaAlO3,5,Ba1 Al1 O3,3.956853,3.956853,3.956853,90,90,90,cubic,Pm-3m,0.9993112,-6.997089008,-2.895402251,0.169361201,FALSE,5.690666409,0,FALSE,61.95120364,,
mp-1183287,BaAuO3,5,Ba1 Au1 O3,4.211679,4.211679,4.211679,90,90,90,cubic,Pm-3m,0.0004405,-5.472031942,-1.464683951,0.198319595,FALSE,8.497247242,0,FALSE,74.7077729,,
mp-1214407,BaBO3,5,Ba1 B1 O3,3.773902,3.773902,3.773902,90,90,90,cubic,Pm-3m,0.9997743,-6.262393088,-1.573943143,1.253707968,FALSE,6.05947502,0,FALSE,53.74918147,,
mp-1183282,BaBeO3,5,Ba1 Be1 O3,3.894084,3.894084,3.894084,90,90,90,cubic,Pm-3m,2.0000789,-6.126401228,-2.025947064,0.517310855,FALSE,5.4649916,0,FALSE,59.0494622,,
mp-1182285,BaBiO3,10,Ba1 Bi1 O3,12.78814342,4.244221821,7.686089291,119.8528028,144.6587828,62.14360354,tri,P1,3.56E-05,-5.720806651,-1.590228198,0.643198813,FALSE,6.304104323,1.1031,FALSE,207.7249422,,
mp-1227955,BaBiO3,5,Ba1 Bi1 O3,4.436474421,4.436474421,4.436474332,90.07361203,90.07361203,90.07362282,trig,R32,1.87E-05,-6.34115627,-2.210577817,0.022849194,FALSE,7.498409977,0,FALSE,87.3198258,,
mp-22942,BaBiO3,10,Ba1 Bi1 O3,6.168362634,6.168135864,6.189354802,60.52899098,60.11212974,59.99878425,mono,C2/m,0,-6.36398803,-2.233409577,1.74E-05,FALSE,7.826831504,0,FALSE,167.3116005,,
mp-23438,BaBiO3,10,Ba1 Bi1 O3,6.261625709,6.261625709,6.261625709,60,60,60,cubic,Fm-3m,0.0002449,-6.339119297,-2.208540844,0.024886167,FALSE,7.543375453,0,FALSE,173.5986382,"{'voigt': 109.77, 'reuss': 109.77, 'vrh': 109.77}","{'voigt': 59.055, 'reuss': 54.208, 'vrh': 56.631}"
mp-23482,BaBiO3,10,Ba1 Bi1 O3,6.155718111,6.155718113,6.155717889,60.65765849,60.6576586,60.65766008,trig,R-3,1.00E-07,-6.363170259,-2.232591806,0.000835205,FALSE,7.823300896,0,FALSE,167.3871072,,
mp-545783,BaBiO3,5,Ba1 Bi1 O3,4.428113,4.428113,4.428113,90,90,90,cubic,Pm-3m,0.0005044,-6.342794462,-2.212216009,0.021211002,FALSE,7.540948199,0,FALSE,86.82725776,,
mp-559051,BaBiO3,20,Ba1 Bi1 O3,6.17435169,6.217179422,8.71828688,90.25395528,90,90,mono,P2_1/c,0,-6.364005464,-2.233427011,0,TRUE,7.825829473,0,FALSE,334.6660467,"{'voigt': 106.395, 'reuss': 105.939, 'vrh': 106.167}","{'voigt': 49.941, 'reuss': 48.721, 'vrh': 49.331}"
mp-644369,BaBiO3,10,Ba1 Bi1 O3,4.331788,6.284164336,7.579851987,81.14390837,73.44458823,81.43362508,tri,P1,0.0008315,-5.417050556,-1.286472103,0.946954908,FALSE,6.742529469,0.1011,FALSE,194.2178691,,
mp-27365,BaBiSe3,40,Ba1 Bi1 Se3,4.47920984,16.37637289,17.09756824,90,90,90,ortho,P2_12_12_1,0,-4.576548427,-1.31719969,0,TRUE,6.177229599,0.9944,FALSE,1254.161524,,
mp-1227982,BaCO3,5,Ba1 C1 O3,4.680706588,4.680706588,4.680706282,71.04357184,71.04357184,71.043575,trig,R32,0.0003304,-7.83249692,-2.63419223,0.049050461,FALSE,3.684833205,4.1409,FALSE,88.92776225,,
mp-2506699,BaCO3,10,Ba1 C1 O3,5.31525123,4.574121851,6.913922442,70.53848339,90,90,mono,P2_1/m,0,-7.866087237,-2.667782548,0.015460144,FALSE,4.135037254,4.4437,FALSE,158.4914239,"{'voigt': 53.929, 'reuss': 45.28, 'vrh': 49.604}","{'voigt': 24.649, 'reuss': 19.338, 'vrh': 21.994}"
mp-2626703,BaCO3,10,Ba1 C1 O3,4.18679167,5.46618774,7.29521311,90,90,90,ortho,Imm2,0,-7.837690545,-2.639385855,0.043856836,FALSE,3.925376476,4.1754,FALSE,166.9567101,"{'voigt': 50.706, 'reuss': 49.638, 'vrh': 50.172}","{'voigt': 20.841, 'reuss': 17.249, 'vrh': 19.045}"
mp-34195,BaCO3,10,Ba1 C1 O3,5.434419,4.657328,6.152335392,76.3642405,90,90,mono,P2_1/m,0.0008527,-7.846187791,-2.647883101,0.03535959,FALSE,4.330839316,4.3543,FALSE,151.3258504,,
mp-4559,BaCO3,5,Ba1 C1 O3,4.316593126,4.316593092,4.31659373,77.02716604,77.02716971,77.02716943,trig,R3m,0,-7.859702646,-2.661397956,0.021844735,FALSE,4.364283352,4.3635,FALSE,75.08311096,,
mp-545643,BaCO3,10,Ba1 C1 O3,5.512938556,5.512938556,5.690802,90,90,120.0000067,hex_,P6_3/mmc,0.0003083,-7.777050586,-2.578745897,0.104496795,FALSE,4.375370271,3.976,FALSE,149.78571,,
mp-5504,BaCO3,20,Ba1 C1 O3,5.35922589,6.41636356,8.97996254,90,90,90,ortho,Pnma,0,-7.881547381,-2.683242692,0,TRUE,4.24472577,4.3974,FALSE,308.7916524,"{'voigt': 54.259, 'reuss': 49.486, 'vrh': 51.872}","{'voigt': 22.507, 'reuss': 21.321, 'vrh': 21.914}"
mp-674478,BaCO3,10,Ba1 C1 O3,7.626608106,7.626608106,7.626607883,41.66562433,41.66562433,41.66562198,trig,R-3c,8.55E-05,-7.83164051,-2.63333582,0.049906871,FALSE,3.69810734,4.1595,FALSE,177.2171227,,
mp-675324,BaCO3,10,Ba1 C1 O3,4.486155,5.466677,7.060908,90,90,90,ortho,Pnn2,0.0001028,-7.805723579,-2.607418889,0.075823802,FALSE,3.784660713,4.0966,TRUE,173.1642522,,
mp-676020,BaCO3,10,Ba1 C1 O3,4.6217168,4.6217168,9.061459814,70.80446823,70.80446823,71.02264189,mono,C2/m,0.000277,-7.847781473,-2.649476784,0.033765908,FALSE,3.914066981,4.0287,FALSE,167.4391229,,
mp-762225,BaCO3,10,Ba1 C1 O3,5.403903,4.580137,6.982292724,72.64213507,90,90,mono,P2_1,0.0001414,-7.868310547,-2.670005858,0.013236834,FALSE,3.973227229,4.474,FALSE,164.946001,,
mp-1183285,BaCaO3,5,Ba1 Ca1 O3,4.464426,4.464426,4.464426,90,90,90,cubic,Pm-3m,1.9999337,-6.033683868,-2.279992301,0.344531054,FALSE,4.206416658,0,FALSE,88.98091886,,
mp-583645,BaCaSn3,40,Ba1 Ca1 Sn3,9.351140165,9.351140165,17.39672307,90,90,118.5542098,ortho,Cmce,6.00E-07,-3.798957877,-0.6082998,0.001525398,FALSE,5.304326689,0,FALSE,1336.200823,,
mp-1227962,BaCd3Ga,5,Ba1 Cd3 Ga1,6.754915387,6.754915387,6.754915387,138.3921326,138.3921326,60.30295713,tet,I4mm,0,-1.839842728,-0.274422421,0.001069449,FALSE,6.720678033,0,FALSE,134.4809527,,
mp-1183292,BaCdO3,5,Ba1 Cd1 O3,4.302665,4.302665,4.302665,90,90,90,cubic,Pm-3m,0.4612154,-5.182268728,-1.637695099,0.202881038,FALSE,6.206805514,0,FALSE,79.65491919,,
mp-3187,BaCeO3,20,Ba1 Ce1 O3,6.25973589,6.24763379,8.81258554,90,90,90,ortho,Pnma,0,-8.129798318,-3.589836753,0,TRUE,6.272009405,2.2207,TRUE,344.6473317,,
mp-3316,BaCeO3,10,Ba1 Ce1 O3,6.230307604,6.235577713,6.235577655,60.70769916,60.02796597,60.02795864,ortho,Imma,0,-8.129155707,-3.589194142,0.000642611,FALSE,6.274068486,2.2112,FALSE,172.2671111,,
mp-4900,BaCeO3,10,Ba1 Ce1 O3,6.209312551,6.209312551,6.209312818,60.82794013,60.82794013,60.82794472,trig,R-3c,0,-8.127277154,-3.587315589,0.002521164,FALSE,6.267612674,2.2279,TRUE,172.4445509,,
mp-5663,BaCeO3,5,Ba1 Ce1 O3,4.474193,4.474193,4.474193,90,90,90,cubic,Pm-3m,0.0001896,-8.089464422,-3.549502857,0.040333896,FALSE,6.033613518,2.299,FALSE,89.56619858,"{'voigt': 111.403, 'reuss': 111.403, 'vrh': 111.403}","{'voigt': 53.213, 'reuss': 51.56, 'vrh': 52.386}"
mp-1080782,BaClO3,10,Ba1 Cl1 O3,3.783979,3.783979,13.015271,90,90,90,tet,P4/nmm,1.9927059,-4.514344352,-0.792065429,0.916970865,FALSE,3.93445544,0,FALSE,186.3591197,,
mp-1182237,BaClO3,10,Ba1 Cl1 O3,4.080162,4.089748,12.11870887,89.76972807,90,90,mono,P2_1/m,2.0000439,-4.934675693,-1.21239677,0.496639524,FALSE,3.625838706,0,FALSE,202.2212547,,
mp-1182337,BaClO3,10,Ba1 Cl1 O3,4.618091,4.923813489,9.161635066,78.57077949,86.63636932,87.40468142,tri,P1,2.0008761,-4.900270702,-1.177991779,0.531044515,FALSE,3.59917163,0.1727,FALSE,203.7195576,,
mp-1076782,BaCoO3,5,Ba1 Co1 O3,3.981593,3.981593,3.981593,90,90,90,cubic,Pm-3m,3.579829,-6.604887678,-1.825632743,0.222225269,FALSE,6.425811832,0,FALSE,63.12052358,,
mp-1283250,BaCoO3,20,Ba1 Co1 O3,5.726482658,5.722637803,9.707627869,89.80945837,89.71405459,59.9617919,mono,C2/m,0.0037181,-6.826057752,-2.046802817,0.001055195,FALSE,5.891197337,1.1424,FALSE,275.3943445,,
mp-18965,BaCoO3,20,Ba1 Co1 O3,5.683698159,5.68449177,9.415556622,90.21787659,90.16958531,60.00059219,hex_,P6_3/mmc,3.9988418,-6.827112947,-2.047858012,0,TRUE,6.15829064,0,FALSE,263.4501234,,
mp-19271,BaCrO3,20,Ba1 Cr1 O3,5.750352942,5.750352942,9.452074,90,90,120.0000108,hex_,P6_3/mmc,2.9979547,-7.608645989,-2.325464904,0.294836224,FALSE,5.82370151,0,FALSE,270.6740992,,
mp-540926,BaCrO3,30,Ba1 Cr1 O3,5.728244153,5.728244153,13.952037,90,90,120.0000018,hex_,P6_3/mmc,12.0000005,-7.819695598,-2.536514513,0.083786615,FALSE,5.963837236,0,FALSE,396.4708704,,
mp-557081,BaCrO3,70,Ba1 Cr1 O3,5.740694139,5.740694139,32.846124,90,90,120.0000016,hex_,P6_3/mmc,28.0272763,-7.821830158,-2.538649073,0.081652054,FALSE,5.885322716,0,FALSE,937.4401924,,
mp-1076800,BaCuO3,5,Ba1 Cu1 O3,4.003691,4.003691,4.003691,90,90,90,cubic,Pm-3m,0.630671,-5.835579016,-1.663166091,0.08273292,FALSE,6.439350785,0,FALSE,64.17733153,,
mp-1183286,BaDyO3,5,Ba1 Dy1 O3,4.428139,4.428139,4.428139,90,90,90,cubic,Pm-3m,0.9998442,-7.3938727,-3.117626003,0.108720871,FALSE,6.651910634,0,FALSE,86.8287872,,
mp-1183291,BaErO3,5,Ba1 Er1 O3,4.395468,4.395468,4.395468,90,90,90,cubic,Pm-3m,1.000491,-7.430702978,-3.164587625,0.086702642,FALSE,6.894401581,0,FALSE,84.92105246,,
mp-1183310,BaEuO3,5,Ba1 Eu1 O3,4.437278,4.437278,4.437278,90,90,90,cubic,Pm-3m,5.0267218,-8.183482982,-2.773289008,0.165083611,FALSE,6.410643366,0,FALSE,87.36750141,,
mp-1192651,BaFeO3,30,Ba1 Fe1 O3,5.644466396,5.644466656,13.69047446,89.99997685,90.00002746,119.999655,hex_,P6_3/mmc,20.0075123,-7.196856963,-2.15028113,0,TRUE,6.361031509,0,FALSE,377.7430169,,
mp-19035,BaFeO3,5,Ba1 Fe1 O3,3.95157012,3.95156495,3.95156495,90,90,90,cubic,Pm-3m,3.9875053,-7.148832341,-2.102256508,0.048024623,FALSE,6.490300409,0,FALSE,61.70323615,,
mp-705845,BaFeO3,20,Ba1 Fe1 O3,13.05038073,13.05038073,13.05038115,27.40377678,27.40377678,27.40377804,trig,R3m,13.9953491,-6.735871966,-1.689296133,0.460984997,FALSE,3.85510608,0,FALSE,415.524274,,
mp-1227967,BaGa3Sn,5,Ba1 Ga3 Sn1,6.407779704,6.407779704,6.407779704,135.1179367,135.1179367,65.34700762,tet,I4mm,0.0084669,-3.410123002,-0.40755603,0.01936548,FALSE,5.984186777,0,FALSE,129.0890084,,
mp-1069708,BaGe3Ir,5,Ba1 Ge3 Ir1,6.060256348,6.060256348,6.060256348,135.6490947,135.6490947,64.52330937,tet,I4mm,0,-5.450191656,-0.524893119,0,TRUE,8.476012437,0,FALSE,107.2538964,,
mp-1068447,BaGe3Pd,5,Ba1 Ge3 Pd1,6.12048028,6.12048028,6.12048028,135.8851656,135.8851656,64.15792097,tet,I4mm,0,-4.76390768,-0.570319617,0,TRUE,6.995413498,0,FALSE,109.5883881,,
mp-22346,BaGe3Pt,5,Ba1 Ge3 Pt1,4.599647445,4.599647233,6.088497611,112.1985307,112.1985284,90.04224809,tet,I4mm,0,-5.004205486,-0.632367121,0,TRUE,8.394102908,0,FALSE,108.8676342,"{'voigt': 74.435, 'reuss': 74.398, 'vrh': 74.417}","{'voigt': 40.393, 'reuss': 40.249, 'vrh': 40.321}"
mp-1070247,BaGe3Rh,5,Ba1 Ge3 Rh1,6.07321281,6.07321281,6.07321281,135.9954027,135.9954027,63.98744281,tet,I4mm,0,-5.193392076,-0.562918801,0,TRUE,7.132739648,0,FALSE,106.6602964,,
mp-1227958,BaGeAu3,5,Ba1 Ge1 Au3,6.137866082,6.137866082,6.137866082,133.9546714,133.9546714,67.15881598,tet,I4mm,0,-3.78469072,-0.511960961,0,TRUE,11.28299789,0,FALSE,117.8649919,,
mp-1016823,BaGeO3,5,Ba1 Ge1 O3,3.980389,3.980389,3.980389,90,90,90,cubic,Pm-3m,0.0015562,-6.740814964,-2.463637802,0.23236341,FALSE,6.79256289,0,FALSE,63.06327955,"{'voigt': 137.118, 'reuss': 137.118, 'vrh': 137.118}","{'voigt': 109.641, 'reuss': 97.1, 'vrh': 103.37}"
mp-13863,BaGeO3,20,Ba1 Ge1 O3,4.64225534,5.75213457,12.94668869,90,90,90,ortho,P2_12_12_1,0,-6.973178374,-2.696001212,0,TRUE,4.956252732,3.5519,FALSE,345.7138411,,
mp-676865,BaGeO3,30,Ba1 Ge1 O3,7.770673,9.18334896,9.377144299,63.73189069,71.66486798,78.2775683,tri,P1,0.0006789,-6.521994367,-2.244817205,0.451184006,FALSE,4.525060473,1.4284,FALSE,567.9852833,,
mp-1195469,BaGeS3,40,Ba1 Ge1 S3,5.8041549,13.48955987,15.55618473,64.57360247,90,90,mono,P2_1/c,0,-5.224138663,-1.432722363,0,TRUE,3.697401324,2.4497,FALSE,1100.002769,,
mp-998552,BaHfO3,5,Ba1 Hf1 O3,4.170042393,4.169091207,4.170376634,89.9994643,89.99434031,89.99884047,cubic,Pm-3m,0,-9.130724048,-3.786714651,0,TRUE,8.332451499,3.5394,FALSE,72.50319462,"{'voigt': 159.196, 'reuss': 159.196, 'vrh': 159.196}","{'voigt': 102.846, 'reuss': 101.812, 'vrh': 102.329}"
mp-1105549,BaHfS3,20,Ba1 Hf1 S3,7.01916792,7.04466639,9.97598706,90,90,90,ortho,Pnma,0,-6.99744922,-2.139200686,0,TRUE,5.547751677,1.2524,TRUE,493.2895788,,
mp-1383356,BaHfS3,5,Ba1 Hf1 S3,5.011663892,5.011663892,5.011664263,89.98687819,89.98687819,89.98688777,cubic,Pm-3m,3.39E-05,-6.969186516,-2.110937982,0.028262704,FALSE,5.435170256,0.8329,FALSE,125.8768336,,
mp-998352,BaHfS3,5,Ba1 Hf1 S3,5.009601493,5.011652013,5.012407,89.99594146,90.04371296,90.00681966,trig,R3m,4.93E-05,-6.96909416,-2.110845625,0.02835506,FALSE,5.436616237,0.8439,FALSE,125.8433541,,
mp-998361,BaHfS3,5,Ba1 Hf1 S3,5.786308241,5.786308241,4.091538,90,90,120.0000028,ortho,Cmmm,0.4779224,-5.426521662,-0.568273127,1.570927558,FALSE,5.766849582,0,FALSE,118.6370499,,
mp-998419,BaHfS3,20,Ba1 Hf1 S3,3.883518,8.803535,14.515039,90,90,90,ortho,Pnma,0.0038439,-6.98994301,-2.131694475,0.007506211,FALSE,5.514654764,0.8665,TRUE,496.2501199,,
mp-1227995,BaIn3Pt,5,Ba1 In3 Pt1,6.772628052,6.772628052,6.772628052,138.331176,138.331176,60.39616392,tet,I4mm,0,-3.783351808,-0.52982591,0.002311427,FALSE,8.273108485,0,FALSE,135.85713,,
mp-1183288,BaInO3,5,Ba1 In1 O3,4.285795,4.285795,4.285795,90,90,90,cubic,Pm-3m,1.0001248,-6.066852474,-2.162446134,0.077204865,FALSE,6.331161973,0,FALSE,78.72164877,,
mp-1227991,BaInO3,10,Ba1 In1 O3,4.281839716,4.281839716,8.649932,90,90,90.68375703,ortho,Amm2,2.0001337,-6.046394532,-2.141988192,0.097662807,FALSE,6.285864601,0,FALSE,158.5778698,,
mp-4307,BaIrO3,30,Ba1 Ir1 O3,5.794282278,5.794282278,14.62414104,89.05063261,89.05063261,119.7156036,mono,C2/c,1.6631362,-7.096196429,-1.975938002,0.047177417,FALSE,8.826014379,0,FALSE,426.1880021,,
mp-542897,BaIrO3,30,Ba1 Ir1 O3,5.832748881,5.832748881,14.97434683,78.40800857,78.40800857,59.54336278,mono,C2/m,2.1983903,-7.127117726,-2.006859299,0.016256119,FALSE,8.804769593,0,FALSE,427.2163394,,
mp-5660,BaIrO3,5,Ba1 Ir1 O3,4.077295,4.077295,4.077295,90,90,90,cubic,Pm-3m,0.003885,-7.000139584,-1.879881157,0.143234262,FALSE,9.249072757,0,FALSE,67.782316,,
mp-10250,BaLiF3,5,Ba1 Li1 F3,3.98858164,3.98858164,3.98858164,90,90,90,cubic,Pm-3m,0,-5.65533203,-3.742865088,0.02190322,FALSE,5.266935917,6.5643,TRUE,63.45348178,"{'voigt': 69.602, 'reuss': 69.602, 'vrh': 69.602}","{'voigt': 42.363, 'reuss': 42.315, 'vrh': 42.339}"
mp-23818,BaLiH3,5,Ba1 Li1 H3,4.01142218,4.01142218,4.01142218,90,90,90,cubic,Pm-3m,0,-3.412171436,-0.609492011,0,TRUE,3.789069851,2.2146,FALSE,64.54983172,,
mp-632808,BaLiH3,5,Ba1 Li1 H3,5.065786,5.065786,5.065786,90,90,90,cubic,Pm-3m,0,-2.791583514,0.011095911,0.620587922,FALSE,1.881426287,1.1987,FALSE,129.9991517,"{'voigt': 16.673000000000002, 'reuss': 16.673000000000002, 'vrh': 16.673000000000002}","{'voigt': 8.755, 'reuss': 4.124, 'vrh': 6.439}"
mp-1183284,BaLiO3,5,Ba1 Li1 O3,4.086802,4.086802,4.086802,90,90,90,cubic,Pm-3m,3,-5.387844742,-1.653488578,0.308695115,FALSE,4.67736486,0,FALSE,68.25756506,,
mp-1227881,BaMgIn3,5,Ba1 Mg1 In3,7.182609243,7.182609243,7.182609243,140.5829503,140.5829503,56.9692323,tet,I-4m2,0,-2.705268706,-0.339875469,0,TRUE,5.672033287,0,FALSE,148.1612557,,
mp-1016852,BaMnO3,5,Ba1 Mn1 O3,4.033313,4.033313,4.033313,90,90,90,cubic,Pm-3m,3.0024338,-7.54118007,-2.356205421,0.133739454,FALSE,6.080659115,0,FALSE,65.61237804,,
mp-1205336,BaMnO3,20,Ba1 Mn1 O3,4.88190519,5.722083173,9.909149846,90.00017607,90.00024693,90.00000629,hex_,P6_3mc,12.0000015,-7.667293149,-2.4823185,0.007626375,FALSE,5.765228492,1.8948,TRUE,276.8088065,,
mp-18840,BaMnO3,15,Ba1 Mn1 O3,7.737605495,7.737605495,7.737604856,43.16578741,43.16578741,43.16578577,trig,R-3m,8.9998148,-7.674919524,-2.489944874,0,TRUE,6.088581272,0.8953,FALSE,196.5810195,,
mp-19156,BaMnO3,10,Ba1 Mn1 O3,5.72570452,5.725705404,4.88273365,90,90,120.0000557,hex_,P6_3/mmc,6.0011318,-7.667144826,-2.482170176,0.007774698,FALSE,5.755924358,0,FALSE,138.6281264,,
mp-19267,BaMnO3,30,Ba1 Mn1 O3,9.93015546,9.930141427,4.90105618,89.99987452,90.00029651,120.0001337,hex_,P6_3cm,17.9999981,-7.669312416,-2.484337767,0.005607108,FALSE,5.719479103,2.0901,FALSE,418.5344477,,
mp-35078,BaMnO3,20,Ba1 Mn1 O3,5.66658882,5.666589081,9.25043075,89.99999844,89.99999857,59.99992362,hex_,P6_3/mmc,11.9999985,-7.661692173,-2.476717523,0.013227351,FALSE,6.203842342,0.7543,TRUE,257.2383259,,
mp-557535,BaMnO3,40,Ba1 Mn1 O3,5.700109009,5.700109222,18.87427413,90.0000097,89.99999135,120.0000113,hex_,P6_3/mmc,24.0000003,-7.673698964,-2.488724315,0.00122056,FALSE,6.009789265,0.8359,FALSE,531.0888446,,
mp-675227,BaMnO3,25,Ba1 Mn1 O3,12.31945691,12.31945691,12.31945692,26.78387695,26.78387695,26.78387396,trig,R-3m,15.0000004,-7.67313779,-2.488163141,0.001781733,FALSE,5.95850825,0.8679,FALSE,334.7872385,,
mp-757501,BaMnO3,30,Ba1 Mn1 O3,5.691210413,5.691210504,14.05376615,90.0000012,89.9999992,120.0000511,hex_,P-6m2,17.9999985,-7.669705202,-2.484730552,0.005214322,FALSE,6.072328581,0,FALSE,394.2143439,,