mp_id,formula,sites,composition,a_edge (angstrom),b_edge (angstrom),c_edge (angstrom),alpha_ang (deg),beta_ang (deg),gamma_ang (deg),crystal_system,space_group,total_magnetisation (bohr),energy_per_atom (eV/atom),formation_energy (eV/atom),energy_above_hull (eV/atom),stable,density (g/cc),band_gap (eV),direct_bandgap,volume (cubic-angstrom),bulk_modulus (GPa),shear_modulus (GPa)
mp-863748,TbBS3,20,Tb1 B1 S3,6.10527,7.247642,8.755194,90,90,90,ortho,Pna2_1,0.0008442,-6.263075194,-1.516608375,0.037185812,FALSE,4.559437274,2.3293,FALSE,387.406927,,
mp-1187310,TbBeO3,5,Tb1 Be1 O3,3.582893,3.582893,3.582893,90,90,90,cubic,Pm-3m,0.9899392,-7.54468718,-2.900455279,0.331777578,FALSE,7.796004751,0,FALSE,45.99403545,,
mp-1217576,TbBiTe3,5,Tb1 Bi1 Te3,10.84725989,10.84725989,10.8472606,23.48596893,23.48596893,23.48597292,trig,R3m,0.0030943,-34.15357978,-0.957503614,0.027055499,FALSE,7.002971684,1.038,TRUE,178.0067494,,
mp-755605,TbCO3,20,Tb1 C1 O3,4.891937,5.319011,8.068755158,89.875144,90,90,mono,P2_1/m,1.27E-05,-8.503739838,-2.761657411,0.025706206,FALSE,6.926367754,4.0554,FALSE,209.9506628,,
mp-19802,TbCoO3,20,Tb1 Co1 O3,5.14811318,5.40980175,7.38391903,90,90,90,ortho,Pnma,0,-7.945187599,-2.622154928,0,TRUE,8.586979183,1.4209,FALSE,205.6441511,,
mp-1069044,TbCoSi3,5,Tb1 Co1 Si3,5.538946428,5.538946428,5.538946428,137.2248588,137.2248588,62.09226193,tet,I4mm,0,-6.232843386,-0.623396499,0,TRUE,6.477585593,0,FALSE,77.44765818,,
mp-756124,TbCrO3,20,Tb1 Cr1 O3,5.25593727,5.54415288,7.56498891,90,90,90,ortho,Pnma,12.000001,-9.041607084,-3.214648262,0,TRUE,7.801541691,2.4854,FALSE,220.4416568,,
mp-1208345,TbCrSe3,20,Tb1 Cr1 Se3,3.902542,8.221596,13.351086,90,90,90,ortho,Pnma,12.001834,-6.405198821,-1.449469716,0.032535153,FALSE,6.94343338,0.114,TRUE,428.3712458,,
mp-1187321,TbCuO3,5,Tb1 Cu1 O3,3.782912,3.782912,3.782912,90,90,90,cubic,Pm-3m,0.0011721,-6.967511658,-2.251320996,0.16570829,FALSE,8.296382372,0,FALSE,54.13507165,,
mp-1187342,TbErO3,5,Tb1 Er1 O3,4.24976,4.24976,4.24976,90,90,90,cubic,Pm-3m,4.09E-05,-8.003597216,-3.193704126,0.825933459,FALSE,8.095420539,1.7284,TRUE,76.75262073,,
mp-756048,TbErO3,20,Tb1 Er1 O3,5.681784,5.937561,8.402514,90,90,90,ortho,Pnma,0.0002003,-8.741092267,-3.931199177,0.088438408,FALSE,8.767798704,4.5065,TRUE,283.4667005,,
mp-19853,TbFeO3,20,Tb1 Fe1 O3,5.30188447,5.62729075,7.63675994,90,90,90,ortho,Pnma,20.0102995,-8.434927227,-2.844573657,6.26E-05,FALSE,7.66026369,1.6263,FALSE,227.8446071,,
mp-1199267,TbFeSb3,40,Tb1 Fe1 Sb3,6.102814,12.029095,12.452416,90,90,90,ortho,Pbcm,0.4305845,-5.674409016,-0.575431306,0.012157142,FALSE,8.429233185,0,FALSE,914.1484125,,
mp-18462,TbGa3Os,15,Tb1 Ga3 Os1,6.3953521,6.3953521,6.3953521,90,90,90,cubic,Pm-3m,0.0304491,-24.27440901,-0.566410836,0,TRUE,10.63318921,0,FALSE,261.5732807,,
mp-1104461,TbGa3Ru,15,Tb1 Ga3 Ru1,6.39180224,6.39180224,6.39180224,90,90,90,cubic,Pm-3m,1.70E-06,-5.186435589,-0.587124742,0,TRUE,8.950048066,0,FALSE,261.137949,,
mp-1101339,TbGaO3,10,Tb1 Ga1 O3,5.378312443,5.378312443,5.378312918,61.53484377,61.53484377,61.53483645,trig,R-3c,9.93E-05,-7.568390402,-3.06642187,0.10628467,FALSE,8.073723895,3.7138,TRUE,113.7969071,,
mp-756290,TbGaO3,20,Tb1 Ga1 O3,5.320997,5.60395,7.659555,90,90,90,ortho,Pnma,0.0004723,-7.627494339,-3.125525806,0.047180734,FALSE,8.045324073,3.9218,TRUE,228.3972154,,
mp-756224,TbGdO3,20,Tb1 Gd1 O3,5.784414,6.033436,8.490438,90,90,90,ortho,Pnma,28.3826443,-10.55582607,-3.844252297,0.094544135,FALSE,8.163254092,3.1586,FALSE,296.3153664,,
mp-981132,TbGeO3,5,Tb1 Ge1 O3,3.915811,3.915811,3.915811,90,90,90,cubic,Pm-3m,0.0008949,-7.222090068,-2.401135169,0.616428659,FALSE,7.731512778,0,FALSE,60.04338474,,
mp-755740,TbHoO3,20,Tb1 Ho1 O3,5.691931,5.952072,8.435282,90,90,90,ortho,Pnma,7.27E-05,-8.725198068,-3.909312847,0.095557412,FALSE,8.642790494,4.7786,TRUE,285.7770895,,
mp-769263,TbInO3,20,Tb1 In1 O3,5.567067,5.898466,8.204513,90,90,90,ortho,Pnma,0.0003698,-7.380217258,-2.932033182,0.056091049,FALSE,7.932277564,2.9112,TRUE,269.4128685,,
mp-754145,TbLuO3,20,Tb1 Lu1 O3,5.616018,5.884038,8.266365,90,90,90,ortho,Pnma,0.000192,-8.787407117,-3.986720299,0.066262024,FALSE,9.286016758,4.9973,TRUE,273.1609016,,
mp-1187347,TbMgO3,5,Tb1 Mg1 O3,3.856457,3.856457,3.856457,90,90,90,cubic,Pm-3m,1.0010994,-6.979735644,-2.757292313,0.449121891,FALSE,6.694606786,0,FALSE,57.35423347,,
mp-1232160,TbMgS3,10,Tb1 Mg1 S3,6.931231037,6.931231037,6.773727427,73.36750549,73.36750549,110.8169948,mono,C2/m,2.0017491,-5.283688209,-1.547005741,0.353715234,FALSE,3.532659243,0.2,FALSE,262.6897631,,
mp-1232232,TbMgS3,30,Tb1 Mg1 S3,6.714025,6.714025067,18.055527,90,90,120.0000046,trig,R-3,4.6009655,-5.360508802,-1.623826334,0.276894641,FALSE,3.949657697,0,FALSE,704.8662119,,
mp-1232315,TbMgSe3,20,Tb1 Mg1 Se3,8.473840365,11.951104,7.575516606,90,133.8808338,90,mono,C2/m,0.0015162,-4.777536038,-1.426322424,0.304460561,FALSE,5.046233732,0,FALSE,552.9745038,,
mp-1232347,TbMgSe3,30,Tb1 Mg1 Se3,6.929893,6.929892418,19.29184,90,90,119.999998,trig,R-3,2.6491829,-4.847674414,-1.4964608,0.234322184,FALSE,5.216826768,0,FALSE,802.3379109,,
mp-1237963,TbMgSe3,10,Tb1 Mg1 Se3,7.351322722,7.351322722,6.884209531,76.43907756,76.43907756,118.6828978,mono,C2/m,4.87E-05,-4.738442848,-1.387229234,0.343553751,FALSE,4.813924417,0,FALSE,289.8299134,,
mp-1188379,TbMnO3,20,Tb1 Mn1 O3,3.407102,6.037715,13.165208,90,90,90,ortho,Pnma,16.0048208,-8.445132788,-2.716380402,0.314236525,FALSE,6.422371567,0.9345,TRUE,270.8229532,,
mp-22055,TbMnO3,20,Tb1 Mn1 O3,5.27122738,5.63501917,7.56732549,90,90,90,ortho,Pnma,16.0000011,-8.759369313,-3.030616926,0,TRUE,7.738046496,0.4016,TRUE,224.7758055,,
mp-1087235,TbNiGe3,10,Tb1 Ni1 Ge3,10.945902,10.945902,4.08739182,90,90,158.5809895,ortho,Cmmm,0,-5.437124338,-0.579707564,0,TRUE,8.08803023,0,FALSE,178.8393685,,
mp-1187352,TbNiO3,5,Tb1 Ni1 O3,3.738698,3.738698,3.738698,90,90,90,cubic,Pm-3m,1.0005355,-7.347095932,-2.294719268,0.198668504,FALSE,8.440024863,0,FALSE,52.25900745,,
mp-755865,TbNiO3,20,Tb1 Ni1 O3,5.17983298,5.49717878,7.4119376,90,90,90,ortho,Pnma,3.9999988,-7.545764436,-2.493387772,0,TRUE,8.359446104,0,FALSE,211.0509796,,
mp-770347,TbNiO3,10,Tb1 Ni1 O3,5.241194018,5.241194018,5.241194342,62.8215772,62.8215772,62.82158013,trig,R-3c,1.999989,-7.504032711,-2.451656047,0.041731725,FALSE,8.153377987,0,FALSE,108.1925364,,
mp-1187359,TbOsO3,5,Tb1 Os1 O3,3.963612,3.963612,3.963612,90,90,90,cubic,Pm-3m,0.0172411,-8.02200867,-1.880185856,0.726862456,FALSE,10.5909311,0,FALSE,62.26921686,,
mp-542103,TbRh3C,5,Tb1 Rh3 C1,4.15536456,4.15536456,4.15536456,90,90,90,cubic,Pm-3m,9.00E-07,-7.684119586,-0.492229041,0,TRUE,11.1006513,0,FALSE,71.75090685,"{'voigt': 196.967, 'reuss': 196.967, 'vrh': 196.967}","{'voigt': 77.706, 'reuss': 77.643, 'vrh': 77.674}"
mp-5692,TbRhO3,20,Tb1 Rh1 O3,5.22941294,5.77580762,7.6000779,90,90,90,ortho,Pnma,0,-7.944981087,-2.575770185,0,TRUE,8.964942819,0.8749,TRUE,229.5533845,"{'voigt': 190.891, 'reuss': 180.476, 'vrh': 185.684}","{'voigt': 74.118, 'reuss': 62.296, 'vrh': 68.207}"
mp-31119,TbScO3,20,Tb1 Sc1 O3,5.4395561,5.73025335,7.93211736,90,90,90,ortho,Pnma,0,-9.119895555,-3.957052406,0.018404451,FALSE,6.766676756,4.4378,TRUE,247.2443723,"{'voigt': 165.96, 'reuss': 160.963, 'vrh': 163.461}","{'voigt': 83.271, 'reuss': 81.192, 'vrh': 82.231}"
mp-1188262,TbScS3,20,Tb1 Sc1 S3,6.38954675,7.02160892,9.52792106,90,90,90,ortho,Pnma,0,-15.63002396,-2.284040213,0,TRUE,4.662683004,1.7696,FALSE,427.4692108,,
mp-1068588,TbSi3Ir,5,Tb1 Si3 Ir1,5.712284971,5.712284971,5.712284971,137.0817527,137.0817527,62.31228874,tet,I4mm,1.00E-07,-6.74522519,-0.794774811,0,TRUE,8.466783583,0,FALSE,85.39214365,,
mp-1068827,TbSi3Rh,5,Tb1 Si3 Rh1,5.695664669,5.695664669,5.695664669,137.1768873,137.1768873,62.16600216,tet,I4mm,1.00E-07,-6.43406754,-0.778442423,0,TRUE,6.81263744,0,FALSE,84.35669302,,
mp-1187364,TbSiO3,5,Tb1 Si1 O3,3.728302,3.728302,3.728302,90,90,90,cubic,Pm-3m,0.0004615,-7.797072692,-2.815659758,0.709497434,FALSE,7.530094611,0,FALSE,51.82427695,,
mp-756118,TbSmO3,20,Tb1 Sm1 O3,5.829079,6.07813,8.507765,90,90,90,ortho,Pnma,2.40E-06,-8.679432099,-3.839365544,0.082701226,FALSE,7.872935592,4.7475,TRUE,301.4292627,,
mp-1187377,TbTeO3,5,Tb1 Te1 O3,4.270654,4.270654,4.270654,90,90,90,cubic,Pm-3m,0.0316166,-6.135461924,-1.610451418,1.102878488,FALSE,7.131692888,0,FALSE,77.89026143,,
mp-768409,TbTiO3,20,Tb1 Ti1 O3,5.365621,5.7134,7.723401,90,90,90,ortho,Pnma,4.0044308,-9.103564157,-3.628116426,0.055962048,FALSE,7.147747421,0,FALSE,236.7681101,,
mp-756762,TbTmO3,20,Tb1 Tm1 O3,5.655502,5.926571,8.335532,90,90,90,ortho,Pnma,0.0001352,-8.749218095,-3.956368471,0.079758518,FALSE,8.935618837,4.5689,TRUE,279.3881455,,
mp-1217533,TbUTe3,20,Tb1 U1 Te3,4.37029432,11.88585301,12.14881601,89.96430316,90,90,ortho,Pnma,5.9768536,-38.90038069,-1.416351945,0.013243564,FALSE,8.207141734,0,FALSE,631.0661875,,
mp-1187389,TbVO3,5,Tb1 V1 O3,3.842924,3.842924,3.842924,90,90,90,cubic,Pm-3m,2.0022212,-8.60458872,-2.891458178,0.400170577,FALSE,7.544947011,0,FALSE,56.75255092,,
mp-554811,TbVO3,20,Tb1 V1 O3,5.27539823,5.67600385,7.56295853,90,90,90,ortho,Pnma,7.9999998,-9.004759297,-3.291628755,0,TRUE,7.563310372,1.4396,TRUE,226.4590336,,
mp-555390,TcO3F,20,Tc1 O3 F1,5.262659,6.017554,9.517857276,86.75122918,90,90,mono,P2_1/c,0.0001573,-7.349794371,-1.926594186,0.021290894,FALSE,3.641817677,2.4445,FALSE,300.9302824,,
mp-687205,TcPbO3,20,Tc1 Pb1 O3,7.396851705,7.396851705,7.396851705,60,60,60,cubic,Fd-3m,8.0804837,-7.437499719,-1.654065913,0.063941841,FALSE,8.197885205,0,FALSE,286.1710769,,
mp-1187400,TcSnO3,5,Tc1 Sn1 O3,3.984185,3.984185,3.984185,90,90,90,cubic,Pm-3m,0.0003817,-7.34165959,-1.498840827,0.330657786,FALSE,6.950211235,0,FALSE,63.24387742,,
mp-29429,TeCF3,40,Te1 C1 F3,11.794863,7.034608,10.44832753,79.14750964,90,90,mono,P2_1/c,0.0021126,-5.139627248,-1.51834559,0.333563522,FALSE,3.067564131,2.5075,FALSE,851.4163804,,
mp-1195796,TeHO3,40,Te1 H1 O3,4.74930327,8.0353211,12.07919741,90,90,90,ortho,Pna2_1,0,-5.660514848,-1.384043779,0,TRUE,5.089482964,2.2733,FALSE,460.9684669,,
mp-625630,TeHO3,40,Te1 H1 O3,4.83496,8.327892,11.984585,90,90,90,ortho,Pna2_1,0.0017807,-5.63435221,-1.357881141,0.026162638,FALSE,4.861764443,2.1229,FALSE,482.5596111,,
mp-625654,TeHO3,40,Te1 H1 O3,4.975523,8.42996,11.713092,90,90,90,ortho,Pna2_1,0.0015446,-5.628324485,-1.351853416,0.032190363,FALSE,4.775392537,2.1525,TRUE,491.2876042,,
mp-625657,TeHO3,40,Te1 H1 O3,8.271378,4.911386,12.06611057,87.67387459,90,90,mono,Pc,7.00E-06,-5.633659365,-1.357188296,0.026855483,FALSE,4.790200099,2.2213,FALSE,489.7689262,,
mp-625856,TeHO3,40,Te1 H1 O3,11.523334,4.989845,9.731615153,59.22709889,90,90,mono,Pc,2.90E-06,-5.617589252,-1.341118183,0.042925596,FALSE,4.879771463,2.0582,FALSE,480.7789005,,
mp-625913,TeHO3,40,Te1 H1 O3,8.348498,4.959516,11.71524491,88.80759974,90,90,mono,Pc,1.31E-05,-5.627206561,-1.350735491,0.033308287,FALSE,4.837711032,2.1809,FALSE,484.9589286,,
mp-543039,TePbO3,60,Te1 Pb1 O3,4.60105577,13.51009858,18.02331347,106.7912857,90,99.80422101,mono,C2/c,4.70E-06,-5.890857966,-1.55089077,0,TRUE,7.22692361,3.2104,TRUE,1055.472121,,
mp-555021,TePbO3,20,Te1 Pb1 O3,5.35030789,5.35030789,11.96787127,90,90,90,tet,P4_1,0,-5.888139745,-1.548172549,0.00271822,FALSE,7.421719171,2.6752,FALSE,342.5898238,,
mp-979272,TePdO3,5,Te1 Pd1 O3,4.065242,4.065242,4.065242,90,90,90,cubic,Pm-3m,0.9682637,-5.225936404,-0.59252226,0.620444304,FALSE,6.970549607,0,FALSE,67.18297193,"{'voigt': 120.533, 'reuss': 120.533, 'vrh': 120.533}","{'voigt': 13.523, 'reuss': -23.377, 'vrh': -4.927}"
mp-1217353,Th3SiGe,10,Th3 Si1 Ge1,4.16280002,7.924184833,7.924184833,89.67544477,90,90,ortho,Cmmm,7.00E-07,-49.33452802,-0.720222299,0.000882777,FALSE,10.12423626,0,FALSE,261.3892811,,
mp-1187416,ThBO3,5,Th1 B1 O3,3.682134,3.682134,3.682134,90,90,90,cubic,Pm-3m,0.0006974,-8.176784634,-2.389358027,1.189993245,FALSE,9.674205454,0,FALSE,49.92278073,,
mp-1206772,ThBRh3,5,Th1 B1 Rh3,4.25609694,4.25609694,4.25609694,90,90,90,cubic,Pm-3m,9.00E-07,-31.57255468,-0.926494236,0,TRUE,11.87987045,0,FALSE,77.09647711,,
mp-1187421,ThBeO3,5,Th1 Be1 O3,3.659297,3.659297,3.659297,90,90,90,cubic,Pm-3m,1.57E-05,-8.658321612,-3.458890786,0.402925639,FALSE,9.795503214,2.6968,FALSE,48.99965011,,
mp-1068664,ThCoSi3,5,Th1 Co1 Si3,5.56104404,5.56104404,5.56104404,136.1095471,136.1095471,63.8110191,tet,I4mm,0,-23.24445169,-0.638294277,0,TRUE,7.639325964,0,FALSE,81.56221491,,
mp-1189441,ThCrS3,20,Th1 Cr1 S3,6.26398333,7.45661935,8.93150794,90,90,90,ortho,Pnma,15.9999965,-7.598655058,-1.702258173,0.019837775,FALSE,6.053926632,0.0158,FALSE,417.1741171,,
mp-1208150,ThCrSb3,20,Th1 Cr1 Sb3,6.199992,6.315171,12.955849,90,90,90,ortho,Pbcm,10.6178162,-33.67151719,-0.538006846,0.029786436,FALSE,8.502014497,0,FALSE,507.2734371,,
mp-1188731,ThCrSe3,20,Th1 Cr1 Se3,6.518927,7.753569,9.376909,90,90,90,ortho,Pnma,16.0000001,-6.98121209,-1.470284059,0.026841786,FALSE,7.300250734,0.055,FALSE,473.9553994,,
mp-1187487,ThCuO3,5,Th1 Cu1 O3,3.868279,3.868279,3.868279,90,90,90,cubic,Pm-3m,0.0002246,-7.738799444,-2.467409857,0.530382224,FALSE,9.856584723,0,FALSE,57.88331165,,
mp-11778,ThMnSe3,10,Th1 Mn1 Se3,4.05246582,6.713776663,9.3467944,90,90,107.5658875,ortho,Cmcm,9.9968154,-27.83508714,-1.616431631,0,TRUE,7.17596716,0,FALSE,242.4435642,,
mp-1187460,ThMoO3,5,Th1 Mo1 O3,4.109289,4.109289,4.109289,90,90,90,cubic,Pm-3m,2.3568923,-8.899091794,-2.278413519,0.948727142,FALSE,8.997243289,0,FALSE,69.39050638,,
mp-1187442,ThPdO3,5,Th1 Pd1 O3,4.045796,4.045796,4.045796,90,90,90,cubic,Pm-3m,0.0082782,-7.490239,-2.002714385,0.933890281,FALSE,9.690306237,0,FALSE,66.22347133,,
mp-1187556,ThReO3,5,Th1 Re1 O3,4.001598,4.001598,4.001598,90,90,90,cubic,Pm-3m,0.010163,-9.032555872,-2.091384777,1.098486394,FALSE,12.08262487,0,FALSE,64.07673465,,
mp-22394,ThRu3C,5,Th1 Ru3 C1,4.21281975,4.21281975,4.21281975,90,90,90,cubic,Pm-3m,5.22E-05,-9.182912182,-0.289765909,0,TRUE,12.15411066,0,FALSE,74.76849404,,
mp-1068869,ThSi3Ir,5,Th1 Si3 Ir1,5.717121974,5.717121974,5.717121974,136.1238734,136.1238734,63.78888306,tet,I4mm,1.00E-07,-31.29310327,-0.861921389,0,TRUE,9.532677268,0,FALSE,88.57986979,,
mp-1070572,ThSi3Os,5,Th1 Si3 Os1,5.810960072,5.810960072,5.810960072,137.1887308,137.1887308,62.1477952,tet,I4mm,0,-31.25968775,-0.703330793,0,TRUE,9.393057979,0,FALSE,89.54526012,,
mp-1070238,ThSi3Rh,5,Th1 Si3 Rh1,5.688169812,5.688169812,5.688169812,135.9366298,135.9366298,64.07832177,tet,I4mm,0,-25.61707851,-0.830521597,0,TRUE,7.927187976,0,FALSE,87.81147595,,
mp-1068732,ThSi3Ru,5,Th1 Si3 Ru1,5.785703975,5.785703975,5.785703975,137.1300871,137.1300871,62.23795769,tet,I4mm,0,-25.79152906,-0.747310814,0,TRUE,7.824743972,0,FALSE,88.57160814,,
mp-1187425,ThSiO3,5,Th1 Si1 O3,3.884033,3.884033,3.884033,90,90,90,cubic,Pm-3m,0.0331334,-8.034501764,-2.497889905,1.108246122,FALSE,8.732181095,0,FALSE,58.59340458,,
mp-10732,ThTaN3,5,Th1 Ta1 N3,4.064437,4.064437,4.064437,90,90,90,cubic,Pm-3m,0.000214,-31.39824368,-1.507574309,0.231308498,FALSE,11.25291583,0.0766,TRUE,67.14306907,,
mp-1079374,ThTaN3,10,Th1 Ta1 N3,5.522987848,5.522987848,7.685094,90,90,145.9409683,ortho,Cmcm,2.00E-07,-31.49704317,-1.606373794,0.132509012,FALSE,11.50998095,0,FALSE,131.2869775,,
mp-1105961,ThTaN3,20,Th1 Ta1 N3,5.67700396,5.74887351,8.05416669,90,90,90,ortho,Pnma,0,-31.62955218,-1.738882807,0,TRUE,11.49750711,0.3495,TRUE,262.858826,,
mp-1187536,ThTaN3,10,Th1 Ta1 N3,5.708718128,5.708718128,5.708718128,119.9432295,119.2122207,90.7341221,ortho,Imma,2.04E-05,-31.60651642,-1.715847049,0.023035757,FALSE,11.41543962,0.4013,FALSE,132.3742809,,
mp-1187448,ThWO3,5,Th1 W1 O3,4.135015,4.135015,4.135015,90,90,90,cubic,Pm-3m,2.5148761,-9.136233774,-2.093059475,1.138614587,FALSE,10.89481792,0,FALSE,70.7019298,,
mp-3271,Ti3AlC,5,Ti3 Al1 C1,4.16993733,4.16993733,4.16993733,90,90,90,cubic,Pm-3m,1.39E-05,-7.924206462,-0.592062987,0,TRUE,4.18162617,0,FALSE,72.50844376,"{'voigt': 153.159, 'reuss': 153.159, 'vrh': 153.159}","{'voigt': 105.065, 'reuss': 101.32, 'vrh': 103.192}"
mp-10675,Ti3AlN,5,Ti3 Al1 N1,4.11698988,4.11703682,4.11699906,90,90,90,cubic,Pm-3m,7.99E-05,-11.96129748,-1.026473476,0.029710625,FALSE,4.39248369,0,FALSE,69.78230624,"{'voigt': 162.649, 'reuss': 162.649, 'vrh': 162.649}","{'voigt': 43.918, 'reuss': 37.81, 'vrh': 40.864}"
mp-1217183,Ti3CuSn,5,Ti3 Cu1 Sn1,4.703768109,4.704005,5.076873,90,90,59.99832699,hex_,P-6m2,0.1336254,-14.711678,0.169572162,0.451904498,FALSE,5.562152154,0,FALSE,97.28217849,,
mp-20325,Ti3InC,5,Ti3 In1 C1,4.23556108,4.23556108,4.23556108,90,90,90,cubic,Pm-3m,8.51E-05,-7.677729004,-0.542865947,0,TRUE,5.909770787,0,FALSE,75.98587116,,
mp-21233,Ti3InN,5,Ti3 In1 N1,4.18788422,4.18788422,4.18788422,90,90,90,cubic,Pm-3m,0.002086,-7.887028328,-0.93024282,0.006211866,FALSE,6.159042111,0,FALSE,73.44868072,,
mp-760414,Ti3PdO,10,Ti3 Pd1 O1,5.676575204,5.853615169,5.676613023,61.00745447,89.98503713,118.9921631,tet,I4/mcm,2.7472108,-8.217818204,-1.454954431,0,TRUE,6.433494069,0,FALSE,137.3242167,"{'voigt': 171.264, 'reuss': 170.705, 'vrh': 170.984}","{'voigt': 49.017, 'reuss': 41.394, 'vrh': 45.205}"
mp-7159,La3TlC,5,La3 Tl1 C1,5.24077264,5.24077264,5.24077264,90,90,90,cubic,Pm-3m,4.70E-06,-5.571156512,-0.289524727,0,TRUE,7.303694422,0,FALSE,143.9414779,"{'voigt': 54.494, 'reuss': 54.494, 'vrh': 54.494}","{'voigt': 36.211, 'reuss': 36.101, 'vrh': 36.156}"
mp-1076000,LaAgO3,5,La1 Ag1 O3,4.108444,4.108444,4.108444,90,90,90,cubic,Pm-3m,0.0735616,-6.410640516,-1.886074956,0.23923105,FALSE,7.058347223,0,FALSE,69.34770853,,
mp-768308,LaAgO3,10,La1 Ag1 O3,5.731080998,5.731080998,5.731080605,62.31957935,62.31957935,62.31958708,trig,R3c,9.62E-05,-6.613159625,-2.088594065,0.036711941,FALSE,6.992830904,0,FALSE,139.9948641,,
mp-1069603,LaAl3Au,5,La1 Al3 Au1,6.272133772,6.272133772,6.272133772,139.2942875,139.2942875,58.92640679,tet,I4mm,3.00E-07,-4.54990877,-0.660585451,0,TRUE,6.658445001,0,FALSE,103.9492462,,
mp-1070573,LaAl3Cu,5,La1 Al3 Cu1,6.132876207,6.132876207,6.132876207,139.1565836,139.1565836,59.13617398,tet,I4mm,1.77E-05,-12.67743179,-0.519857547,0,TRUE,4.816332685,0,FALSE,97.70717735,,
mp-1080060,LaAlO3,10,La1 Al1 O3,5.355289105,5.355289105,5.355289105,90.19529289,119.7749816,119.9997686,ortho,Imma,2.09E-05,-8.427559753,-3.722466563,0,TRUE,6.529684686,3.7121,FALSE,108.784654,,
mp-1080080,LaAlO3,10,La1 Al1 O3,5.360968297,5.360968297,5.360968297,120.1686566,120.1686566,89.70812557,tet,I4/mcm,0,-8.427160754,-3.722067564,0.000398999,FALSE,6.536718281,3.5193,FALSE,108.6676003,,
mp-1182592,LaAlO3,5,La1 Al1 O3,4.731420223,6.398442,4.761754571,89.32638111,119.7894795,91.35596217,hex_,P6/mmm,0.5109685,-5.52231379,-0.8172206,2.905245963,FALSE,2.839688463,0,FALSE,125.0717286,,
mp-2920,LaAlO3,10,La1 Al1 O3,5.35090685,5.350907329,5.350905874,60.14702703,60.14701797,60.14701406,trig,R-3c,0,-8.427286556,-3.722193366,0.000273197,FALSE,6.53504866,4.0189,FALSE,108.6953635,,
mp-5304,LaAlO3,5,La1 Al1 O3,3.7829488,3.7829488,3.7829488,90,90,90,cubic,Pm-3m,0,-8.424506328,-3.719413138,0.003053425,FALSE,6.560522947,3.4924,FALSE,54.13665153,"{'voigt': 194.911, 'reuss': 194.911, 'vrh': 194.911}","{'voigt': 132.035, 'reuss': 127.346, 'vrh': 129.69}"
mp-696871,LaAlO3,10,La1 Al1 O3,3.79585,5.856904212,6.196032719,107.3494188,94.25969343,107.0592687,tri,P1,5.25E-05,-8.199224974,-3.494131784,0.228334779,FALSE,5.742031104,3.5819,FALSE,123.7070083,,
mp-768417,LaAlO3,30,La1 Al1 O3,7.352805,7.925999501,8.318543282,103.8221212,96.34129759,89.67373902,tri,P-1,0.0019876,-8.396395142,-3.691301952,0.031164611,FALSE,4.555686889,4.4431,FALSE,467.764471,,
mp-768518,LaAlO3,30,La1 Al1 O3,7.091014976,7.091014976,10.17005618,90,90,120.0592492,ortho,Cmcm,0,-8.374345489,-3.669252299,0.053214264,FALSE,4.814707508,4.6067,FALSE,442.5997766,,
mp-771698,LaAlO3,40,La1 Al1 O3,6.053921,7.664067,13.57440073,64.73654041,90,90,mono,P2_1/c,0.0029857,-8.370440926,-3.665347736,0.057118827,FALSE,4.988433942,4.4777,FALSE,569.5811532,,