mp_id,composition,a_edge (angstrom),b_edge (angstrom),c_edge (angstrom),alpha_ang (deg),beta_ang (deg),gamma_ang (deg),crystal_system,space_group,formation_energy (eV/atom),energy_above_hull (eV/atom),band_gap (eV),A_site,B_site,X_site
mp-989586,Sr1 Tc1 N3,6.695544671,6.695544671,5.719636,90.0,90.0,143.2849646,ortho,C222_1,-0.564545395,0.019907795,0.0,Sr,Tc,N
mp-989627,Sr1 Tc1 N3,6.088211309,7.525325655,7.525326328,92.2073988,101.0072062,78.99280676,mono,C2/c,-0.58445319,0.0,1.5818,Sr,Tc,N
mp-1079334,Sr1 Tc1 O3,5.615114369,5.615114369,5.615114369,120.3260759,119.2689768,90.35347685,ortho,Imma,-2.399653263,0.055315276,0.0,Sr,Tc,O
mp-1188414,Sr1 Tc1 O3,5.61607528,5.54823333,7.97698419,90.0,89.999889,89.99998129,ortho,Pnma,-2.45496854,0.0,0.0,Sr,Tc,O
mp-12631,Sr1 Tc1 O3,3.96238547,3.96239136,3.96240069,90.0,90.0,90.0,cubic,Pm-3m,-2.377870307,0.077098233,0.0,Sr,Tc,O
mp-1179315,Sr1 Te1 O3,5.992505,14.60495378,26.80127975,83.29955334,83.59040345,78.1766956,tri,P1,-2.377819146,0.003206169,3.2315,Sr,Te,O
mp-1179320,Sr1 Te1 O3,5.993651,14.59121092,26.7028078,93.78794742,96.31558572,101.8378551,mono,C2/c,-2.376692981,0.004332334,3.3726,Sr,Te,O
mp-561385,Sr1 Te1 O3,14.38679608,14.38679608,15.28444418,58.71163675,58.71163675,23.72194348,mono,C2,-2.378653412,0.002371903,3.4789,Sr,Te,O
mp-647158,Sr1 Te1 O3,5.996545938,14.58929409,26.71530825,83.54535156,83.55722438,78.15374116,mono,Cc,-2.374807163,0.006218152,3.3579,Sr,Te,O
mp-662523,Sr1 Te1 O3,5.955489,9.200745106,12.31902841,110.4661778,90.04590536,90.82730035,tri,P1,-2.349467932,0.031557383,3.174,Sr,Te,O
mp-667421,Sr1 Te1 O3,5.993651,14.59121092,26.7028078,93.78794742,96.31558572,101.8378551,tri,P-1,-2.374470918,0.006554397,3.4208,Sr,Te,O
mp-972117,Sr1 Te1 O3,7.23965219,6.791806534,8.679399906,53.49735093,90.0,90.0,mono,P2_1/c,-2.381025315,0.0,3.6116,Sr,Te,O
mp-4651,Sr1 Ti1 O3,5.522329701,5.522329559,5.534898479,119.9249071,119.9249046,89.99999866,tet,I4/mcm,-3.551662292,0.0,1.8488,Sr,Ti,O
mp-5229,Sr1 Ti1 O3,3.91270131,3.91270131,3.91270131,90.0,90.0,90.0,cubic,Pm-3m,-3.551192238,0.000470054,1.772,Sr,Ti,O
mp-551830,Sr1 Ti1 O3,5.533921315,5.533921683,5.533925593,120.0278688,120.0278751,89.95176766,tet,I4/mcm,-3.551577544,8.47e-05,1.787,Sr,Ti,O
mp-776018,Sr1 Ti1 O3,5.628854383,5.628854383,13.886038,90.0,90.0,120.0000045,hex_,P6_3/mmc,-3.51255982,0.039102471,1.7362,Sr,Ti,O
mp-1080529,Sr1 Ti1 S3,6.622387791,6.622387791,5.812368,90.0,90.0,119.9999979,hex_,P6_3/mmc,-1.838744033,0.082437121,0.0,Sr,Ti,S
mp-981367,Sr1 Tl1 O3,4.279558,4.279558,4.279558,90.0,90.0,90.0,cubic,Pm-3m,-1.624270146,0.240666966,0.0,Sr,Tl,O
mp-1186758,Sr1 Tm1 O3,4.316318,4.316318,4.316318,90.0,90.0,90.0,cubic,Pm-3m,-3.119328557,0.205895363,0.0,Sr,Tm,O
mp-18717,Sr1 V1 O3,3.900891,3.900891,3.900891,90.0,90.0,90.0,cubic,Pm-3m,-2.878867755,0.039101677,0.0,Sr,V,O
mp-989513,Sr1 W1 N3,3.82253228,6.427569316,6.700715156,102.9563372,89.99998229,107.2987702,mono,C2/m,-0.807895963,0.018614444,1.2682,Sr,W,N
mp-989625,Sr1 W1 N3,3.674235249,6.354455054,6.648418908,110.0319125,96.44294237,91.02012007,tri,P1,-0.826510407,0.0,1.1076,Sr,W,N
mp-1186764,Sr1 W1 O3,4.101269,4.101269,4.101269,90.0,90.0,90.0,cubic,Pm-3m,-2.455699439,0.195045571,0.0,Sr,W,O
mp-1217777,Sr1 Zn1 In3,6.88777684,6.88777684,6.88777684,140.7312535,140.7312535,56.74465947,tet,I4mm,-0.290728676,0.0,0.0,Sr,Zn,In
mp-1186757,Sr1 Zn1 O3,3.980065,3.980065,3.980065,90.0,90.0,90.0,cubic,Pm-3m,-1.871074827,0.167972298,0.0,Sr,Zn,O
mp-1020622,Sr1 Zr1 O3,5.78296588,5.78296588,4.18518549,90.0,90.0,90.0,tet,P4/mbm,-3.644416242,0.017242587,3.1681,Sr,Zr,O
mp-1068742,Sr1 Zr1 O3,4.176861,4.176861,4.274988,90.0,90.0,90.0,tet,P4mm,-3.613318103,0.048340726,3.2609,Sr,Zr,O
mp-1080575,Sr1 Zr1 O3,5.81235817,5.81235817,5.81235817,90.50057896,119.6121185,119.8108052,ortho,Imma,-3.65706639,0.004592439,3.4652,Sr,Zr,O
mp-3323,Sr1 Zr1 O3,4.197594,4.197594,4.197594,90.0,90.0,90.0,cubic,Pm-3m,-3.606749917,0.054908912,3.2144,Sr,Zr,O
mp-3626,Sr1 Zr1 O3,5.814864578,5.814864578,8.25266177,90.0,90.0,90.63032988,ortho,Cmcm,-3.654475072,0.007183756,3.416,Sr,Zr,O
mp-4387,Sr1 Zr1 O3,5.79524115,5.8442896,8.21457412,90.0,90.0,90.0,ortho,Pnma,-3.661658829,0.0,3.6122,Sr,Zr,O
mp-5076,Sr1 Zr1 O3,5.844042019,5.844042429,5.844044603,120.8401656,120.8401603,88.55086966,tet,I4/mcm,-3.652363502,0.009295327,3.5667,Sr,Zr,O
mp-557203,Sr1 Zr1 O3,8.396673,8.396673,8.396673,90.0,90.0,90.0,cubic,P2_13,-3.606928869,0.054729959,3.542,Sr,Zr,O
mp-613402,Sr1 Zr1 O3,4.405374,4.405374,4.405374,90.0,90.0,90.0,cubic,Pm-3m,-1.144418149,2.51724068,0.0,Sr,Zr,O
mp-5193,Sr1 Zr1 S3,6.76185335,7.15875562,9.80481376,90.0,90.0,90.0,ortho,Pnma,-2.077214803,0.006412831,1.1777,Sr,Zr,S
mp-558760,Sr1 Zr1 S3,3.84019975,8.58682343,13.99646858,90.0,90.0,90.0,ortho,Pnma,-2.083627635,0.0,0.5512,Sr,Zr,S
mp-541570,Sr1 Zr1 Se3,3.992994,9.063053,14.655838,90.0,90.0,90.0,ortho,Pnma,-1.862227604,0.027114558,0.1669,Sr,Zr,Se
mp-1187189,Ta1 Ag1 O3,3.99937,3.99937,3.99937,90.0,90.0,90.0,cubic,Pm-3m,-2.392283957,0.045000393,1.7306,Ta,Ag,O
mp-9890,Ta1 Ag1 O3,5.650974756,5.650974756,5.650975557,59.12014481,59.12014481,59.12013817,trig,R-3c,-2.405688932,0.031595418,1.9156,Ta,Ag,O
mp-561242,Ta1 Ag1 S3,7.378684638,7.378684638,7.785585,90.0,90.0,153.4239758,ortho,Cmc2_1,-0.954762716,0.000200564,0.0,Ta,Ag,S
mp-5821,Ta1 Ag1 S3,3.39027577,7.248142956,7.78929486,90.0,90.0,103.5251461,ortho,Cmcm,-0.95496328,0.0,0.0,Ta,Ag,S
mp-972222,Ta1 Be1 O3,3.421618,3.421618,3.421618,90.0,90.0,90.0,cubic,Pm-3m,-2.106223181,1.008994493,0.0,Ta,Be,O
mp-1208583,Ta1 Cl3 O1,3.80935944,11.22580866,11.22580866,90.0,90.0,90.0,tet,P4_2/mnm,-2.282245156,0.0,3.0691,Ta,O,Cl
mp-756050,Ta1 Cu1 O3,6.439122216,6.439122216,6.823248275,89.82698392,89.82698392,83.93754332,mono,C2/m,-2.502865663,0.03308016,1.5612,Ta,Cu,O
mp-3102,Ta1 Cu1 S3,3.51188539,9.52958893,11.89053138,90.0,90.0,90.0,ortho,Pnma,-1.064546875,0.0,0.418,Ta,Cu,S
mp-1187220,Ta1 Fe1 O3,3.979417,3.979417,3.979417,90.0,90.0,90.0,cubic,Pm-3m,-2.14055665,0.538212133,0.0,Ta,Fe,O
mp-8848,Ta1 Fe1 Te3,3.537942,8.06544,10.38994936,69.0249063,90.0,90.0,mono,P2_1/m,-0.51038449,0.020059773,0.0,Ta,Fe,Te
mp-33753,Ta1 H1 O3,7.501014527,7.501014527,7.501014527,117.7448093,117.7448093,93.95260774,tet,I4_1/amd,-2.649505566,0.077089524,2.9434,Ta,H,O
mp-1187260,Ta1 In1 O3,4.067159,4.067159,4.067159,90.0,90.0,90.0,cubic,Pm-3m,-2.506883888,0.178475824,0.0,Ta,In,O
mp-1247469,Ta1 Mo1 N3,8.60456501,5.462802656,8.12136352,119.2787766,94.08256052,119.6476564,tri,P-1,-0.673760322,0.224364219,0.0,Ta,Mo,N
mp-1101316,Ta1 O1 F3,5.204561116,5.204561116,5.204561116,136.3106482,133.5473125,65.66639405,ortho,Immm,-3.448566106,0.061258639,2.7903,Ta,O,F
mp-677065,Ta1 O1 F3,4.064072,4.896629571,18.22848273,90.82835344,89.89660436,114.0977311,tri,P1,-3.230364683,0.279460061,2.1533,Ta,O,F
mp-22087,Ta1 Ru3 C1,4.055608,4.055608,4.055608,90.0,90.0,90.0,cubic,Pm-3m,-0.074742231,0.153559606,0.0,Ta,C,Ru
mp-8074,Ta1 Sn1 O3,4.072593,4.072593,4.072593,90.0,90.0,90.0,cubic,Pm-3m,-2.360063697,0.324955825,0.0,Ta,Sn,O
mp-676262,Ta1 Tl1 O3,7.54030697,7.54030697,13.0620291,72.93415426,72.93415426,60.01921597,mono,C2/c,-2.684087634,0.0,0.9801,Ta,Tl,O
mp-756933,Ta1 Tl1 O3,7.545341357,7.545341357,7.545341357,60.0,60.0,60.0,cubic,Fd-3m,-2.679812909,0.004274725,0.656,Ta,Tl,O
mp-861873,Ta1 Tl1 O3,4.082848,4.082848,4.082848,90.0,90.0,90.0,cubic,Pm-3m,-2.576722779,0.107364855,0.6811,Ta,Tl,O
mp-10795,Ta1 Tl1 S3,3.52052828,9.36354836,14.4418627,90.0,90.0,90.0,ortho,Pnma,-1.085761593,0.000669481,0.5958,Ta,Tl,S
mp-12027,Ta1 Tl1 Se3,3.650713,9.842243,15.345726,90.0,90.0,90.0,ortho,Pnma,-0.741064191,0.024487024,0.2993,Ta,Tl,Se
mp-1246615,Ta1 W1 N3,5.885075274,9.572887855,7.886044118,123.8571922,76.09126996,119.1331191,tri,P-1,-0.548774164,0.38517527,0.233,Ta,W,N
mp-10041,Tb3 Al1 C1,5.374107,5.374107,5.374107,90.0,90.0,90.0,cubic,Pm-3m,1.431810927,1.786531184,0.0,Al,C,Tb
mp-570822,Tb3 Al1 C1,4.90293061,4.90293061,4.90293061,90.0,90.0,90.0,cubic,Pm-3m,-0.354720257,0.0,0.0,Al,C,Tb
mp-1018638,Tb3 Al1 N1,4.78290322,4.78290322,4.78290322,90.0,90.0,90.0,cubic,Pm-3m,-1.073548212,0.0,0.0,Al,N,Tb
mp-1206878,Tb3 Ga1 C1,4.87141646,4.87141646,4.87141646,90.0,90.0,90.0,cubic,Pm-3m,-0.414463621,0.0,0.0,Ga,C,Tb
mp-21392,Tb3 In1 C1,5.609421,5.609421,5.609421,90.0,90.0,90.0,cubic,Pm-3m,1.594710183,1.918801767,0.0,In,C,Tb
mp-19769,Tb3 In1 N1,4.82578461,4.82578461,4.82578461,90.0,90.0,90.0,cubic,Pm-3m,-1.190359024,0.0,0.0,In,N,Tb
mp-20963,Tb3 Pb1 C1,5.706678,5.706678,5.706678,90.0,90.0,90.0,cubic,Pm-3m,1.613747187,2.030639236,0.0,Pb,C,Tb
mp-20750,Tb3 Sn1 C1,5.630732,5.630732,5.630732,90.0,90.0,90.0,cubic,Pm-3m,1.451015948,1.963342266,0.0,Sn,C,Tb
mp-19836,Tb3 Tl1 C1,5.640493,5.640493,5.640493,90.0,90.0,90.0,cubic,Pm-3m,1.616579634,1.906848261,0.0,Tl,C,Tb
mp-1217573,Tb1 Al3 Ag1,4.191552,4.185423,6.383764501,70.86362779,70.83450709,90.0,tet,I-4m2,-0.353569574,0.000346981,0.0,Tb,Ag,Al
mp-4434,Tb1 Al1 O3,5.19165377,5.30555533,7.39404835,90.0,90.0,90.0,ortho,Pnma,-3.739704173,0.009000525,5.5982,Tb,Al,O
mp-1217607,Tb1 B1 O3,3.889950755,4.323501719,8.52708142,90.0,90.0,56.29794858,ortho,Ama2,-3.466789145,0.0,4.4297,Tb,B,O
mp-3022,Tb1 B1 Pd3,4.327708,4.327708,4.327708,90.0,90.0,90.0,cubic,Pm-3m,-0.654714329,0.112749955,0.0,Tb,B,Pd
mp-3869,Tb1 B1 Rh3,4.17922594,4.17922594,4.17922594,90.0,90.0,90.0,cubic,Pm-3m,-0.785007281,0.0,0.0,Tb,B,Rh
mp-863748,Tb1 B1 S3,6.10527,7.247642,8.755194,90.0,90.0,90.0,ortho,Pna2_1,-1.516608375,0.037185812,2.3293,Tb,B,S
mp-1187310,Tb1 Be1 O3,3.582893,3.582893,3.582893,90.0,90.0,90.0,cubic,Pm-3m,-2.900455279,0.331777578,0.0,Tb,Be,O
mp-1217576,Tb1 Bi1 Te3,10.84725989,10.84725989,10.8472606,23.48596893,23.48596893,23.48597292,trig,R3m,-0.957503614,0.027055499,1.038,Tb,Bi,Te
mp-755605,Tb1 C1 O3,4.891937,5.319011,8.068755158,89.875144,90.0,90.0,mono,P2_1/m,-2.761657411,0.025706206,4.0554,Tb,C,O
mp-19802,Tb1 Co1 O3,5.14811318,5.40980175,7.38391903,90.0,90.0,90.0,ortho,Pnma,-2.622154928,0.0,1.4209,Tb,Co,O
mp-1069044,Tb1 Co1 Si3,5.538946428,5.538946428,5.538946428,137.2248588,137.2248588,62.09226193,tet,I4mm,-0.623396499,0.0,0.0,Tb,Co,Si
mp-756124,Tb1 Cr1 O3,5.25593727,5.54415288,7.56498891,90.0,90.0,90.0,ortho,Pnma,-3.214648262,0.0,2.4854,Tb,Cr,O
mp-1208345,Tb1 Cr1 Se3,3.902542,8.221596,13.351086,90.0,90.0,90.0,ortho,Pnma,-1.449469716,0.032535153,0.114,Tb,Cr,Se
mp-1187321,Tb1 Cu1 O3,3.782912,3.782912,3.782912,90.0,90.0,90.0,cubic,Pm-3m,-2.251320996,0.16570829,0.0,Tb,Cu,O
mp-1187342,Tb1 Er1 O3,4.24976,4.24976,4.24976,90.0,90.0,90.0,cubic,Pm-3m,-3.193704126,0.825933459,1.7284,Tb,Er,O
mp-756048,Tb1 Er1 O3,5.681784,5.937561,8.402514,90.0,90.0,90.0,ortho,Pnma,-3.931199177,0.088438408,4.5065,Tb,Er,O
mp-19853,Tb1 Fe1 O3,5.30188447,5.62729075,7.63675994,90.0,90.0,90.0,ortho,Pnma,-2.844573657,6.26e-05,1.6263,Tb,Fe,O
mp-1199267,Tb1 Fe1 Sb3,6.102814,12.029095,12.452416,90.0,90.0,90.0,ortho,Pbcm,-0.575431306,0.012157142,0.0,Tb,Fe,Sb
mp-18462,Tb1 Ga3 Os1,6.3953521,6.3953521,6.3953521,90.0,90.0,90.0,cubic,Pm-3m,-0.566410836,0.0,0.0,Tb,Os,Ga
mp-1104461,Tb1 Ga3 Ru1,6.39180224,6.39180224,6.39180224,90.0,90.0,90.0,cubic,Pm-3m,-0.587124742,0.0,0.0,Tb,Ru,Ga
mp-1101339,Tb1 Ga1 O3,5.378312443,5.378312443,5.378312918,61.53484377,61.53484377,61.53483645,trig,R-3c,-3.06642187,0.10628467,3.7138,Tb,Ga,O
mp-756290,Tb1 Ga1 O3,5.320997,5.60395,7.659555,90.0,90.0,90.0,ortho,Pnma,-3.125525806,0.047180734,3.9218,Tb,Ga,O
mp-756224,Tb1 Gd1 O3,5.784414,6.033436,8.490438,90.0,90.0,90.0,ortho,Pnma,-3.844252297,0.094544135,3.1586,Tb,Gd,O
mp-981132,Tb1 Ge1 O3,3.915811,3.915811,3.915811,90.0,90.0,90.0,cubic,Pm-3m,-2.401135169,0.616428659,0.0,Tb,Ge,O
mp-755740,Tb1 Ho1 O3,5.691931,5.952072,8.435282,90.0,90.0,90.0,ortho,Pnma,-3.909312847,0.095557412,4.7786,Tb,Ho,O
mp-769263,Tb1 In1 O3,5.567067,5.898466,8.204513,90.0,90.0,90.0,ortho,Pnma,-2.932033182,0.056091049,2.9112,Tb,In,O
mp-754145,Tb1 Lu1 O3,5.616018,5.884038,8.266365,90.0,90.0,90.0,ortho,Pnma,-3.986720299,0.066262024,4.9973,Tb,Lu,O
mp-1187347,Tb1 Mg1 O3,3.856457,3.856457,3.856457,90.0,90.0,90.0,cubic,Pm-3m,-2.757292313,0.449121891,0.0,Tb,Mg,O
mp-1232160,Tb1 Mg1 S3,6.931231037,6.931231037,6.773727427,73.36750549,73.36750549,110.8169948,mono,C2/m,-1.547005741,0.353715234,0.2,Tb,Mg,S
mp-1232232,Tb1 Mg1 S3,6.714025,6.714025067,18.055527,90.0,90.0,120.0000046,trig,R-3,-1.623826334,0.276894641,0.0,Tb,Mg,S
mp-1232315,Tb1 Mg1 Se3,8.473840365,11.951104,7.575516606,90.0,133.8808338,90.0,mono,C2/m,-1.426322424,0.304460561,0.0,Tb,Mg,Se
mp-1232347,Tb1 Mg1 Se3,6.929893,6.929892418,19.29184,90.0,90.0,119.999998,trig,R-3,-1.4964608,0.234322184,0.0,Tb,Mg,Se
mp-1237963,Tb1 Mg1 Se3,7.351322722,7.351322722,6.884209531,76.43907756,76.43907756,118.6828978,mono,C2/m,-1.387229234,0.343553751,0.0,Tb,Mg,Se
mp-1188379,Tb1 Mn1 O3,3.407102,6.037715,13.165208,90.0,90.0,90.0,ortho,Pnma,-2.716380402,0.314236525,0.9345,Tb,Mn,O
mp-22055,Tb1 Mn1 O3,5.27122738,5.63501917,7.56732549,90.0,90.0,90.0,ortho,Pnma,-3.030616926,0.0,0.4016,Tb,Mn,O
mp-1087235,Tb1 Ni1 Ge3,10.945902,10.945902,4.08739182,90.0,90.0,158.5809895,ortho,Cmmm,-0.579707564,0.0,0.0,Tb,Ni,Ge
mp-1187352,Tb1 Ni1 O3,3.738698,3.738698,3.738698,90.0,90.0,90.0,cubic,Pm-3m,-2.294719268,0.198668504,0.0,Tb,Ni,O
mp-755865,Tb1 Ni1 O3,5.17983298,5.49717878,7.4119376,90.0,90.0,90.0,ortho,Pnma,-2.493387772,0.0,0.0,Tb,Ni,O
mp-770347,Tb1 Ni1 O3,5.241194018,5.241194018,5.241194342,62.8215772,62.8215772,62.82158013,trig,R-3c,-2.451656047,0.041731725,0.0,Tb,Ni,O
mp-1187359,Tb1 Os1 O3,3.963612,3.963612,3.963612,90.0,90.0,90.0,cubic,Pm-3m,-1.880185856,0.726862456,0.0,Tb,Os,O
mp-542103,Tb1 Rh3 C1,4.15536456,4.15536456,4.15536456,90.0,90.0,90.0,cubic,Pm-3m,-0.492229041,0.0,0.0,Tb,C,Rh
mp-5692,Tb1 Rh1 O3,5.22941294,5.77580762,7.6000779,90.0,90.0,90.0,ortho,Pnma,-2.575770185,0.0,0.8749,Tb,Rh,O
mp-31119,Tb1 Sc1 O3,5.4395561,5.73025335,7.93211736,90.0,90.0,90.0,ortho,Pnma,-3.957052406,0.018404451,4.4378,Tb,Sc,O
mp-1188262,Tb1 Sc1 S3,6.38954675,7.02160892,9.52792106,90.0,90.0,90.0,ortho,Pnma,-2.284040213,0.0,1.7696,Tb,Sc,S
mp-1068588,Tb1 Si3 Ir1,5.712284971,5.712284971,5.712284971,137.0817527,137.0817527,62.31228874,tet,I4mm,-0.794774811,0.0,0.0,Tb,Ir,Si
mp-1068827,Tb1 Si3 Rh1,5.695664669,5.695664669,5.695664669,137.1768873,137.1768873,62.16600216,tet,I4mm,-0.778442423,0.0,0.0,Tb,Rh,Si
mp-1187364,Tb1 Si1 O3,3.728302,3.728302,3.728302,90.0,90.0,90.0,cubic,Pm-3m,-2.815659758,0.709497434,0.0,Tb,Si,O
mp-756118,Tb1 Sm1 O3,5.829079,6.07813,8.507765,90.0,90.0,90.0,ortho,Pnma,-3.839365544,0.082701226,4.7475,Tb,Sm,O
mp-1187377,Tb1 Te1 O3,4.270654,4.270654,4.270654,90.0,90.0,90.0,cubic,Pm-3m,-1.610451418,1.102878488,0.0,Tb,Te,O
mp-768409,Tb1 Ti1 O3,5.365621,5.7134,7.723401,90.0,90.0,90.0,ortho,Pnma,-3.628116426,0.055962048,0.0,Tb,Ti,O
mp-756762,Tb1 Tm1 O3,5.655502,5.926571,8.335532,90.0,90.0,90.0,ortho,Pnma,-3.956368471,0.079758518,4.5689,Tb,Tm,O
mp-1217533,Tb1 U1 Te3,4.37029432,11.88585301,12.14881601,89.96430316,90.0,90.0,ortho,Pnma,-1.416351945,0.013243564,0.0,Tb,U,Te
mp-1187389,Tb1 V1 O3,3.842924,3.842924,3.842924,90.0,90.0,90.0,cubic,Pm-3m,-2.891458178,0.400170577,0.0,Tb,V,O
mp-554811,Tb1 V1 O3,5.27539823,5.67600385,7.56295853,90.0,90.0,90.0,ortho,Pnma,-3.291628755,0.0,1.4396,Tb,V,O
mp-555390,Tc1 O3 F1,5.262659,6.017554,9.517857276,86.75122918,90.0,90.0,mono,P2_1/c,-1.926594186,0.021290894,2.4445,Tc,F,O
mp-687205,Tc1 Pb1 O3,7.396851705,7.396851705,7.396851705,60.0,60.0,60.0,cubic,Fd-3m,-1.654065913,0.063941841,0.0,Tc,Pb,O
mp-1187400,Tc1 Sn1 O3,3.984185,3.984185,3.984185,90.0,90.0,90.0,cubic,Pm-3m,-1.498840827,0.330657786,0.0,Tc,Sn,O
mp-29429,Te1 C1 F3,11.794863,7.034608,10.44832753,79.14750964,90.0,90.0,mono,P2_1/c,-1.51834559,0.333563522,2.5075,Te,C,F
mp-1195796,Te1 H1 O3,4.74930327,8.0353211,12.07919741,90.0,90.0,90.0,ortho,Pna2_1,-1.384043779,0.0,2.2733,Te,H,O
mp-625630,Te1 H1 O3,4.83496,8.327892,11.984585,90.0,90.0,90.0,ortho,Pna2_1,-1.357881141,0.026162638,2.1229,Te,H,O
mp-625654,Te1 H1 O3,4.975523,8.42996,11.713092,90.0,90.0,90.0,ortho,Pna2_1,-1.351853416,0.032190363,2.1525,Te,H,O
mp-625657,Te1 H1 O3,8.271378,4.911386,12.06611057,87.67387459,90.0,90.0,mono,Pc,-1.357188296,0.026855483,2.2213,Te,H,O
mp-625856,Te1 H1 O3,11.523334,4.989845,9.731615153,59.22709889,90.0,90.0,mono,Pc,-1.341118183,0.042925596,2.0582,Te,H,O
mp-625913,Te1 H1 O3,8.348498,4.959516,11.71524491,88.80759974,90.0,90.0,mono,Pc,-1.350735491,0.033308287,2.1809,Te,H,O
mp-543039,Te1 Pb1 O3,4.60105577,13.51009858,18.02331347,106.7912857,90.0,99.80422101,mono,C2/c,-1.55089077,0.0,3.2104,Te,Pb,O
mp-555021,Te1 Pb1 O3,5.35030789,5.35030789,11.96787127,90.0,90.0,90.0,tet,P4_1,-1.548172549,0.00271822,2.6752,Te,Pb,O
mp-979272,Te1 Pd1 O3,4.065242,4.065242,4.065242,90.0,90.0,90.0,cubic,Pm-3m,-0.59252226,0.620444304,0.0,Te,Pd,O
mp-1217353,Th3 Si1 Ge1,4.16280002,7.924184833,7.924184833,89.67544477,90.0,90.0,ortho,Cmmm,-0.720222299,0.000882777,0.0,Si,Ge,Th
mp-1187416,Th1 B1 O3,3.682134,3.682134,3.682134,90.0,90.0,90.0,cubic,Pm-3m,-2.389358027,1.189993245,0.0,Th,B,O
mp-1206772,Th1 B1 Rh3,4.25609694,4.25609694,4.25609694,90.0,90.0,90.0,cubic,Pm-3m,-0.926494236,0.0,0.0,Th,B,Rh
mp-1187421,Th1 Be1 O3,3.659297,3.659297,3.659297,90.0,90.0,90.0,cubic,Pm-3m,-3.458890786,0.402925639,2.6968,Th,Be,O
mp-1068664,Th1 Co1 Si3,5.56104404,5.56104404,5.56104404,136.1095471,136.1095471,63.8110191,tet,I4mm,-0.638294277,0.0,0.0,Th,Co,Si
mp-1189441,Th1 Cr1 S3,6.26398333,7.45661935,8.93150794,90.0,90.0,90.0,ortho,Pnma,-1.702258173,0.019837775,0.0158,Th,Cr,S
mp-1208150,Th1 Cr1 Sb3,6.199992,6.315171,12.955849,90.0,90.0,90.0,ortho,Pbcm,-0.538006846,0.029786436,0.0,Th,Cr,Sb
mp-1188731,Th1 Cr1 Se3,6.518927,7.753569,9.376909,90.0,90.0,90.0,ortho,Pnma,-1.470284059,0.026841786,0.055,Th,Cr,Se
mp-1187487,Th1 Cu1 O3,3.868279,3.868279,3.868279,90.0,90.0,90.0,cubic,Pm-3m,-2.467409857,0.530382224,0.0,Th,Cu,O
mp-11778,Th1 Mn1 Se3,4.05246582,6.713776663,9.3467944,90.0,90.0,107.5658875,ortho,Cmcm,-1.616431631,0.0,0.0,Th,Mn,Se
mp-1187460,Th1 Mo1 O3,4.109289,4.109289,4.109289,90.0,90.0,90.0,cubic,Pm-3m,-2.278413519,0.948727142,0.0,Th,Mo,O
mp-1187442,Th1 Pd1 O3,4.045796,4.045796,4.045796,90.0,90.0,90.0,cubic,Pm-3m,-2.002714385,0.933890281,0.0,Th,Pd,O
mp-1187556,Th1 Re1 O3,4.001598,4.001598,4.001598,90.0,90.0,90.0,cubic,Pm-3m,-2.091384777,1.098486394,0.0,Th,Re,O
mp-22394,Th1 Ru3 C1,4.21281975,4.21281975,4.21281975,90.0,90.0,90.0,cubic,Pm-3m,-0.289765909,0.0,0.0,Th,C,Ru
mp-1068869,Th1 Si3 Ir1,5.717121974,5.717121974,5.717121974,136.1238734,136.1238734,63.78888306,tet,I4mm,-0.861921389,0.0,0.0,Th,Ir,Si
mp-1070572,Th1 Si3 Os1,5.810960072,5.810960072,5.810960072,137.1887308,137.1887308,62.1477952,tet,I4mm,-0.703330793,0.0,0.0,Th,Os,Si
mp-1070238,Th1 Si3 Rh1,5.688169812,5.688169812,5.688169812,135.9366298,135.9366298,64.07832177,tet,I4mm,-0.830521597,0.0,0.0,Th,Rh,Si
mp-1068732,Th1 Si3 Ru1,5.785703975,5.785703975,5.785703975,137.1300871,137.1300871,62.23795769,tet,I4mm,-0.747310814,0.0,0.0,Th,Ru,Si
mp-1187425,Th1 Si1 O3,3.884033,3.884033,3.884033,90.0,90.0,90.0,cubic,Pm-3m,-2.497889905,1.108246122,0.0,Th,Si,O
mp-10732,Th1 Ta1 N3,4.064437,4.064437,4.064437,90.0,90.0,90.0,cubic,Pm-3m,-1.507574309,0.231308498,0.0766,Th,Ta,N
mp-1079374,Th1 Ta1 N3,5.522987848,5.522987848,7.685094,90.0,90.0,145.9409683,ortho,Cmcm,-1.606373794,0.132509012,0.0,Th,Ta,N
mp-1105961,Th1 Ta1 N3,5.67700396,5.74887351,8.05416669,90.0,90.0,90.0,ortho,Pnma,-1.738882807,0.0,0.3495,Th,Ta,N
mp-1187536,Th1 Ta1 N3,5.708718128,5.708718128,5.708718128,119.9432295,119.2122207,90.7341221,ortho,Imma,-1.715847049,0.023035757,0.4013,Th,Ta,N
mp-1187448,Th1 W1 O3,4.135015,4.135015,4.135015,90.0,90.0,90.0,cubic,Pm-3m,-2.093059475,1.138614587,0.0,Th,W,O
mp-3271,Ti3 Al1 C1,4.16993733,4.16993733,4.16993733,90.0,90.0,90.0,cubic,Pm-3m,-0.592062987,0.0,0.0,Al,C,Ti
mp-10675,Ti3 Al1 N1,4.11698988,4.11703682,4.11699906,90.0,90.0,90.0,cubic,Pm-3m,-1.026473476,0.029710625,0.0,Al,N,Ti
mp-1217183,Ti3 Cu1 Sn1,4.703768109,4.704005,5.076873,90.0,90.0,59.99832699,hex_,P-6m2,0.169572162,0.451904498,0.0,Cu,Sn,Ti
mp-20325,Ti3 In1 C1,4.23556108,4.23556108,4.23556108,90.0,90.0,90.0,cubic,Pm-3m,-0.542865947,0.0,0.0,In,C,Ti