mp_id,formula,sites,composition,a_edge (angstrom),b_edge (angstrom),c_edge (angstrom),alpha_ang (deg),beta_ang (deg),gamma_ang (deg),crystal_system,space_group,total_magnetisation (bohr),energy_per_atom (eV/atom),formation_energy (eV/atom),energy_above_hull (eV/atom),stable,density (g/cc),band_gap (eV),direct_bandgap,volume (cubic-angstrom),bulk_modulus (GPa),shear_modulus (GPa)
mp-1232154,SmMgSe3,20,Sm1 Mg1 Se3,8.590458495,11.936868,7.771778929,90,135.2983852,90,mono,C2/m,0.0012692,-4.789625103,-1.422266986,0.323557296,FALSE,4.876270431,0,FALSE,560.5813376,,
mp-1232201,SmMgSe3,30,Sm1 Mg1 Se3,6.991373,6.991373074,19.476678,90,90,119.9999949,trig,R-3,3.298056,-4.848789735,-1.481431618,0.264392664,FALSE,4.973328984,0,FALSE,824.4617064,,
mp-1237966,SmMgSe3,10,Sm1 Mg1 Se3,7.365345897,7.365345897,6.893110344,76.29442333,76.29442333,116.9713984,mono,C2/m,0.0002035,-4.747523801,-1.380165684,0.365658598,FALSE,4.600929605,0,FALSE,297.0645539,,
mp-1075973,SmMnO3,5,Sm1 Mn1 O3,3.895077,3.895077,3.895077,90,90,90,cubic,Pm-3m,4.0002107,-8.536504286,-2.791607398,0.19960384,FALSE,7.117536561,0,FALSE,59.09464695,,
mp-22203,SmMnO3,20,Sm1 Mn1 O3,5.35857691,5.63273957,7.66998512,90,90,90,ortho,Pnma,16.000001,-8.736108126,-2.991211238,0,TRUE,7.267318239,0.2744,FALSE,231.506752,,
mp-8466,SmNiGe3,10,Sm1 Ni1 Ge3,4.13327889,4.10147712,10.99297637,100.7515009,90,90,ortho,Cmmm,0,-5.471417503,-0.597856227,0,TRUE,7.744995016,0,FALSE,183.0875319,,
mp-1099668,SmNiO3,5,Sm1 Ni1 O3,3.74007269,3.74008343,3.74006907,90,90,90,cubic,Pm-3m,2.30E-06,-7.398819198,-2.330298032,0.122650203,FALSE,8.15884069,0,FALSE,52.31677393,,
mp-22495,SmNiO3,20,Sm1 Ni1 O3,5.28682054,5.4497859,7.53088649,90.0002162,90.00051183,89.99971112,ortho,Pnma,3.9999879,-7.521469401,-2.452948235,0,TRUE,7.868814167,0,FALSE,216.980203,,
mp-568805,SmNiSb3,60,Sm1 Ni1 Sb3,6.22180732,12.58594006,18.27256432,90,90,90,ortho,Pbcm,0,-5.2940557,-0.716910393,0,TRUE,7.998208121,0,FALSE,1430.875066,,
mp-981250,SmPuO3,5,Sm1 Pu1 O3,4.353633,4.353633,4.353633,90,90,90,cubic,Pm-3m,4.8867867,-9.709650824,-2.849570498,0.733932247,FALSE,8.901592941,0,FALSE,82.51928362,"{'voigt': 121.889, 'reuss': 121.889, 'vrh': 121.889}","{'voigt': 27.414, 'reuss': 13.405, 'vrh': 20.41}"
mp-7167,SmRh3C,5,Sm1 Rh3 C1,4.18469494,4.18469494,4.18469494,90,90,90,cubic,Pm-3m,1.00E-07,-7.640704826,-0.432669778,0,TRUE,10.67478139,0,FALSE,73.28100412,,
mp-3317,SmRhO3,20,Sm1 Rh1 O3,5.29624651,5.8243809,7.70683536,90,90,90,ortho,Pnma,1.00E-07,-7.914245706,-2.528890302,0,TRUE,8.41708772,0.7331,TRUE,237.7355018,,
mp-1207179,SmSbO3,5,Sm1 Sb1 O3,4.269023,4.269023,4.269023,90,90,90,cubic,Pm-3m,0.0001055,-6.755500734,-2.017206656,0.860086121,FALSE,6.832410946,0,FALSE,77.8010546,,
mp-1218986,SmSbTe3,5,Sm1 Sb1 Te3,4.403874209,4.403874209,10.83810396,78.27782464,78.27782464,59.99999687,trig,R3m,2.69E-05,-4.65075504,-0.995254029,0.058006843,FALSE,6.145763368,0.8488,TRUE,176.9544612,,
mp-31118,SmScO3,20,Sm1 Sc1 O3,5.52626673,5.78431658,7.97599084,90,90,90,ortho,Pnma,0,-9.10025211,-3.921264459,0,TRUE,6.338811596,4.3669,TRUE,254.9579411,"{'voigt': 163.271, 'reuss': 160.948, 'vrh': 162.11}","{'voigt': 82.439, 'reuss': 81.235, 'vrh': 81.837}"
mp-1188840,SmScS3,20,Sm1 Sc1 S3,6.45689741,7.10807002,9.55313825,90,90,90,ortho,Pnma,0,-6.990475791,-2.297249002,0,TRUE,4.416134161,1.8487,TRUE,438.4515869,,
mp-1068639,SmSi3Ir,5,Sm1 Si3 Ir1,4.21883581,4.21883581,5.737766188,111.5699773,111.5699773,90,tet,I4mm,0,-22.54330163,-0.860587321,0,TRUE,8.124779907,0,FALSE,87.23604944,,
mp-10283,SmSi3Ni,10,Sm1 Si3 Ni1,3.956884495,4.01565305,10.7364635,90.00000091,100.6072144,89.99999978,ortho,Cmmm,0,-5.988472838,-0.633537457,0.037302575,FALSE,5.809252995,0,FALSE,167.6816444,,
mp-1068782,SmSi3Os,5,Sm1 Si3 Os1,5.785105782,5.785105782,5.785105782,137.2923788,137.2923788,61.98850036,tet,I4mm,1.00E-07,-22.47132543,-0.663436041,0,TRUE,8.014784803,0,FALSE,88.02160356,,
mp-1207214,SmSi3Pt,5,Sm1 Si3 Pt1,4.320298,4.320298,5.687626758,112.321168,112.321168,90,tet,I4mm,4.39E-05,-6.142893682,-0.729758973,0.029508607,FALSE,7.968321749,0,FALSE,89.54639254,,
mp-1069765,SmSi3Rh,5,Sm1 Si3 Rh1,5.722168259,5.722168259,5.722168259,136.9642062,136.9642062,62.49312768,tet,I4mm,0,-6.467183284,-0.795413665,0,TRUE,6.501788714,0,FALSE,86.20219627,,
mp-978506,SmSiO3,5,Sm1 Si1 O3,3.768474,3.768474,3.768474,90,90,90,cubic,Pm-3m,0.000167,-7.834020336,-2.8364629,0.660038605,FALSE,7.026074818,0,FALSE,53.51759268,,
mp-1207210,SmSiPt3,5,Sm1 Si1 Pt3,4.06509942,4.06509942,5.46109093,90,90,90,tet,P4mm,1.00E-07,-6.73706417,-1.065603345,0,TRUE,14.05234214,0,FALSE,90.24470944,,
mp-1201411,SmSn3Ru,40,Sm1 Sn3 Ru1,9.71524129,9.71521403,9.71522583,89.999954,90.00010415,90.00009926,cubic,Pm-3n,2.20E-06,-5.670209944,-0.465869096,0,TRUE,8.801757391,0,FALSE,916.9778901,,
mp-1099583,SmTiO3,5,Sm1 Ti1 O3,3.913789,3.913789,3.913789,90,90,90,cubic,Pm-3m,0.0057852,-8.93553538,-3.443943147,0.196237995,FALSE,6.820078469,0,FALSE,59.95041929,,
mp-22416,SmTiO3,20,Sm1 Ti1 O3,5.435781,5.7483,7.790579,90,90,90,ortho,Pnma,4.0002091,-9.083165728,-3.591573495,0.048607647,FALSE,6.718471433,0,FALSE,243.4283261,,
mp-754787,SmTlO3,20,Sm1 Tl1 O3,5.702096,6.071963,8.641722,90,90,90,ortho,Pnma,1.21E-05,-6.794826389,-2.408038135,0.073156752,FALSE,8.94070035,1.1667,TRUE,299.2016143,,
mp-776439,SmTmO3,20,Sm1 Tm1 O3,5.731255,5.992965,8.403303,90,90,90,ortho,Pnma,0.0019637,-8.733400844,-3.924406718,0.051605967,FALSE,8.452390362,4.9205,TRUE,288.6300181,,
mp-1188225,SmVO3,20,Sm1 V1 O3,5.36908064,5.69279481,7.64646575,90,90,90,ortho,Pnma,7.9999985,-8.979006154,-3.24973111,0,TRUE,7.085078066,1.5136,TRUE,233.7147946,,
mp-20702,SmVO3,5,Sm1 V1 O3,3.904088,3.904088,3.904088,90,90,90,cubic,Pm-3m,2.0010207,-8.679960838,-2.950685794,0.299045315,FALSE,6.956840693,0,FALSE,59.50573104,,
mp-1173461,SmVSb3,20,Sm1 V1 Sb3,6.256508,9.011929,9.677231,90,90,90,ortho,Pbcm,9.5234256,-24.53456951,-0.346280064,0.291217203,FALSE,6.897164829,0,FALSE,545.6333079,,
mp-1173542,SmVSb3,20,Sm1 V1 Sb3,10.530323,6.919452,8.419677,90,90,90,ortho,Pbcm,12.2710071,-24.27516183,-0.086872382,0.550624885,FALSE,6.134266699,0,FALSE,613.4918884,,
mp-1208885,SmVSb3,20,Sm1 V1 Sb3,6.037017,6.270428,13.090781,90,90,90,ortho,Pbcm,2.5937263,-24.82069118,-0.632401732,0.005095534,FALSE,7.594275304,0,FALSE,495.5473314,,
mp-755685,SmYO3,20,Sm1 Y1 O3,5.879084,6.009628,8.508557,90,90,90,ortho,Pna2_1,1.09E-05,-9.058397775,-3.844085645,0.06382655,FALSE,6.347127175,4.2852,TRUE,300.6167448,,
mp-772724,SnBO3,20,Sn1 B1 O3,5.201150461,5.201150461,12.49287574,83.76979993,83.76979993,117.8174073,mono,Cc,0.0009545,-7.380336508,-2.273767179,0.090524667,FALSE,4.034906474,2.4171,FALSE,292.2274095,,
mp-972442,SnBO3,5,Sn1 B1 O3,3.492841,3.492841,3.492841,90,90,90,cubic,Pm-3m,0.0002953,-6.342363178,-1.23579385,1.128497996,FALSE,6.917640374,0,FALSE,42.61244452,"{'voigt': 225.06, 'reuss': 225.06, 'vrh': 225.06}","{'voigt': 114.095, 'reuss': 32.04, 'vrh': 73.067}"
mp-1068389,SnCCl3,5,Sn1 C1 Cl3,5.269072,5.269072,5.269072,90,90,90,cubic,Pm-3m,1.8522798,-3.239736058,0.517033407,1.651449031,FALSE,2.691169593,0,FALSE,146.2858769,,
mp-1068985,SnCCl3,5,Sn1 C1 Cl3,4.997462696,4.997462696,4.997462639,80.06370851,80.06370851,80.06370911,trig,R3m,0.9520303,-3.600492902,0.156276563,1.290692187,FALSE,3.286823287,0,FALSE,119.7752569,,
mp-729742,SnCCl3,5,Sn1 C1 Cl3,7.183292848,7.183292848,3.890799509,87.09700298,87.09700298,123.6812497,mono,Cm,1.0003199,-3.72635763,0.030411835,1.164827459,FALSE,2.370165525,0.787,FALSE,166.0981478,,
mp-1101394,SnGeO3,10,Sn1 Ge1 O3,7.076874082,7.076874082,7.076874023,44.31413977,44.31413977,44.31414868,trig,R-3,0.0001993,-6.498422442,-1.803125897,0.142748462,FALSE,5.056354248,2.5994,FALSE,157.2069586,,
mp-1187065,SnGeO3,5,Sn1 Ge1 O3,3.864235,3.864235,3.864235,90,90,90,cubic,Pm-3m,0.0014048,-6.328173208,-1.632876663,0.312997696,FALSE,6.887929191,0,FALSE,57.70196318,,
mp-769144,SnGeO3,60,Sn1 Ge1 O3,7.15438283,11.74797256,13.32631948,60.08063355,90,90,mono,P2/c,0,-6.60144247,-1.906145925,0.039728434,FALSE,4.912835918,2.2811,TRUE,970.796607,,
mp-5045,SnGeS3,20,Sn1 Ge1 S3,10.73326962,6.844584747,7.536298494,73.92042028,90,90,mono,P2_1/c,0,-4.893827237,-0.684291554,0,TRUE,3.590124056,1.6591,FALSE,531.9924308,,
mp-1016837,SnHgO3,5,Sn1 Hg1 O3,4.081489,4.081489,4.081489,90,90,90,cubic,Pm-3m,0.0034075,-5.012297874,-1.179672493,0.338839703,FALSE,8.970404074,0,FALSE,67.99169861,"{'voigt': 138.108, 'reuss': 138.108, 'vrh': 138.108}","{'voigt': 53.451, 'reuss': 51.312, 'vrh': 52.382}"
mp-13554,SnHgO3,10,Sn1 Hg1 O3,5.767216749,5.767216749,5.767216638,58.93092441,58.93092441,58.93092158,trig,R-3c,1.25E-05,-5.286142636,-1.453517255,0.064994941,FALSE,9.218080204,0,FALSE,132.3297252,,
mp-1079200,SnNF3,10,Sn1 N1 F3,5.790100398,5.790100398,5.790100743,64.87288449,64.87288449,64.87289074,trig,R-3,5.9990594,-4.480307579,-0.863850279,1.339848758,FALSE,4.148280261,0,FALSE,151.8817522,,
mp-1080727,SnNF3,10,Sn1 N1 F3,6.234929741,6.234929741,6.805481067,62.26571902,62.26571902,60.19598052,mono,C2,6,-4.582062941,-0.96560564,1.238093396,FALSE,3.255620425,0,FALSE,193.5262691,,
mp-1179476,SnNF3,10,Sn1 N1 F3,6.79242556,3.647111282,6.402005476,99.00096045,99.81975849,70.48878992,tri,P-1,0.0017341,-5.061954649,-1.445497348,0.758201688,FALSE,4.302127045,1.7623,FALSE,146.4503647,,
mp-1237814,SnNF3,10,Sn1 N1 F3,7.067764272,7.067764272,7.067764115,52.21278959,52.21278959,52.2127946,trig,R-3,6.0000387,-4.599682573,-0.983225272,1.220473764,FALSE,3.088903689,0.6753,FALSE,203.9714209,,
mp-726037,SnPO3,10,Sn1 P1 O3,7.354480958,7.354480958,4.858219902,75.53409497,75.53409497,120.5770805,mono,Cc,2.0001174,-6.779568617,-1.925782938,0.310747514,FALSE,3.359908744,0.5198,FALSE,195.397343,,
mp-1079752,SnPS3,10,Sn1 P1 S3,7.856394745,7.856394745,7.85639476,50.87234041,50.87234041,50.87233574,trig,R-3,0.0012709,-11.93168741,-0.361035942,0.045626537,FALSE,3.0346401,1.0326,FALSE,269.087125,,
mp-1080140,SnPS3,10,Sn1 P1 S3,6.750296,6.762189304,7.201777086,81.07238483,71.88532175,60.05816343,mono,C2/m,0,-11.93165858,-0.361007112,0.045655367,FALSE,3.016077494,1.0053,FALSE,270.7432357,,
mp-13923,SnPS3,20,Sn1 P1 S3,7.57141576,6.596566975,11.85949965,56.10713323,90,90,mono,Pc,0,-11.97731395,-0.406662479,0,TRUE,3.321603737,2.1301,FALSE,491.6797093,,
mp-4252,SnPS3,20,Sn1 P1 S3,7.731397,6.630607,11.4073524,55.94071228,90,90,mono,P2_1/c,0.0043895,-11.97027776,-0.399626297,0.007036182,FALSE,3.37103476,1.8226,FALSE,484.4699851,"{'voigt': 17.191, 'reuss': 15.255, 'vrh': 16.223}","{'voigt': 13.161, 'reuss': 10.751, 'vrh': 11.956}"
mp-570370,SnPSe3,20,Sn1 P1 Se3,7.87900693,6.919610535,12.23592134,55.61381464,90,90,mono,Pc,0,-15.62506715,-0.288478995,0.002049228,FALSE,4.663962458,1.4974,FALSE,550.5226376,,
mp-5706,SnPSe3,20,Sn1 P1 Se3,7.895084,6.959541,11.99390218,55.65870318,90,90,mono,P2_1/c,0.0028682,-15.62390058,-0.287312422,0.0032158,FALSE,4.718612819,1.3486,FALSE,544.1465559,"{'voigt': 18.246, 'reuss': 16.412, 'vrh': 17.329}","{'voigt': 12.419, 'reuss': 10.237, 'vrh': 11.328}"
mp-673705,SnPSe3,20,Sn1 P1 Se3,7.729164,7.764427,11.06881933,65.46915073,90,90,mono,P2_1/c,0.0025339,-15.44896894,-0.112380785,0.178147437,FALSE,4.248843426,0.5105,FALSE,604.3096101,,
mp-1101720,SnPbO3,40,Sn1 Pb1 O3,5.838096,8.186615,11.820277,90,90,90,ortho,Pbam,0.0011149,-6.314707455,-1.801487067,0.076258078,FALSE,8.792266046,1.3569,FALSE,564.9412065,,
mp-504543,SnPbO3,20,Sn1 Pb1 O3,7.606152484,7.606152484,7.606152484,60,60,60,cubic,Fd-3m,0.0420892,-6.235659752,-1.722439363,0.155305782,FALSE,7.981674139,0,FALSE,311.157365,"{'voigt': 106.995, 'reuss': 106.995, 'vrh': 106.995}","{'voigt': 47.104, 'reuss': 46.516, 'vrh': 46.81}"
mp-978952,SnPbO3,5,Sn1 Pb1 O3,4.127671,4.127671,4.127671,90,90,90,cubic,Pm-3m,0.0012709,-6.27421126,-1.760990872,0.116754273,FALSE,8.82874279,1.0389,FALSE,70.32588763,"{'voigt': 146.405, 'reuss': 146.405, 'vrh': 146.405}","{'voigt': 80.193, 'reuss': 79.899, 'vrh': 80.046}"
mp-1188095,SnPbS3,20,Sn1 Pb1 S3,3.85485,9.06626,14.432815,90,90,90,ortho,Pnma,0.0090929,-4.759090673,-0.731631147,0.007081249,FALSE,5.558311572,1.0929,FALSE,504.4134958,,
mp-1018636,SnPd3C,5,Sn1 Pd3 C1,4.252861,4.252861,4.252861,90,90,90,cubic,Pm-3m,0.0008523,-5.635662036,0.11991452,0.533400364,FALSE,9.714029519,0,FALSE,76.92075982,"{'voigt': 153.925, 'reuss': 153.925, 'vrh': 153.925}","{'voigt': 33.686, 'reuss': 28.501, 'vrh': 31.093}"
mp-20446,SnPt3C,5,Sn1 Pt3 C1,4.298023,4.298023,4.298023,90,90,90,cubic,Pm-3m,0.0049859,-5.947236176,0.343091286,0.644553754,FALSE,14.97405262,0,FALSE,79.39738622,,
mp-1013537,Sr3AsN,5,Sr3 As1 N1,5.8,5.8,5.8,90,90,90,cubic,Pm-3m,0.0002275,-13.74342984,0.111223138,1.163282138,FALSE,2.993963546,0,FALSE,195.112,,
mp-1013555,Sr3AsN,5,Sr3 As1 N1,5.09566939,5.09566939,5.09566939,90,90,90,cubic,Pm-3m,0,-14.90671197,-1.052059,0,TRUE,4.414959865,0.4218,TRUE,132.3133694,"{'voigt': 47.628, 'reuss': 47.628, 'vrh': 47.628}","{'voigt': 39.476, 'reuss': 38.693, 'vrh': 39.085}"
mp-1013532,Sr3AsP,5,Sr3 As1 P1,5.79,5.79,5.79,90,90,90,cubic,Pm-3m,0.0227872,-14.59008815,-0.760770047,0.490716747,FALSE,3.154654125,0,FALSE,194.104539,,
mp-1013553,Sr3AsP,5,Sr3 As1 P1,5.7,5.7,5.7,90,90,90,cubic,Pm-3m,0.0015215,-14.79198978,-0.962671677,0.288815117,FALSE,3.306456964,0,FALSE,185.193,"{'voigt': 31.673000000000002, 'reuss': 31.673000000000002, 'vrh': 31.673000000000002}","{'voigt': 24.455, 'reuss': 18.223, 'vrh': 21.339}"
mp-1013564,Sr3BiAs,5,Sr3 Bi1 As1,5.88,5.88,5.88,90,90,90,cubic,Pm-3m,6.41E-05,-24.78953608,-1.06017849,0.115534189,FALSE,4.465966311,0,FALSE,203.297472,"{'voigt': 28.457, 'reuss': 28.457, 'vrh': 28.457}","{'voigt': 21.598, 'reuss': 16.883, 'vrh': 19.241}"
mp-1013705,Sr3BiAs,5,Sr3 Bi1 As1,6.196805,6.196805,6.196805,90,90,90,cubic,Pm-3m,0.0020256,-24.22020115,-0.49084356,0.684869119,FALSE,3.815433871,0,FALSE,237.9597424,,
mp-1013531,Sr3BiN,5,Sr3 Bi1 N1,6.23,6.23,6.23,90,90,90,cubic,Pm-3m,0.0094382,-22.09088798,0.522713543,1.56567922,FALSE,3.336449626,0,FALSE,241.804367,,
mp-570008,Sr3BiN,5,Sr3 Bi1 N1,5.23493993,5.23493993,5.23493993,90,90,90,cubic,Pm-3m,0,-23.6565672,-1.042965677,0,TRUE,5.623589411,0.2569,TRUE,143.4614142,"{'voigt': 43.271, 'reuss': 43.271, 'vrh': 43.271}","{'voigt': 36.36, 'reuss': 36.36, 'vrh': 36.36}"
mp-1013530,Sr3BiP,5,Sr3 Bi1 P1,6.183845,6.183845,6.183845,90,90,90,cubic,Pm-3m,0.0002015,-22.91041068,-0.322144027,0.808740277,FALSE,3.53086256,0,FALSE,236.4698555,,
mp-1013643,Sr3BiP,5,Sr3 Bi1 P1,5.776749,5.776749,5.776749,90,90,90,cubic,Pm-3m,0.0003057,-23.67479952,-1.086532869,0.044351435,FALSE,4.331178726,0,FALSE,192.7749031,"{'voigt': 30.724, 'reuss': 30.724, 'vrh': 30.724}","{'voigt': 23.774, 'reuss': 19.852, 'vrh': 21.813}"
mp-1013585,Sr3BiSb,5,Sr3 Bi1 Sb1,6.163906,6.163906,6.163906,90,90,90,cubic,Pm-3m,0.0001527,-3.286778262,-0.667514298,0.310150757,FALSE,4.208964485,0,FALSE,234.1898245,"{'voigt': 23.823, 'reuss': 23.823, 'vrh': 23.823}","{'voigt': 16.974, 'reuss': 10.338, 'vrh': 13.656}"
mp-1013706,Sr3BiSb,5,Sr3 Bi1 Sb1,6.216867,6.216867,6.216867,90,90,90,cubic,Pm-3m,0.0006003,-3.138934002,-0.519670038,0.457995017,FALSE,4.102310731,0,FALSE,240.2783989,,
mp-30950,Sr3GeO,20,Sr3 Ge1 O1,7.16585385,7.13911044,10.12552174,90,90,90,ortho,Pnma,0,-4.488673587,-1.559018961,0,TRUE,4.507172913,0.3188,TRUE,517.9996392,,
mp-1013536,Sr3PN,5,Sr3 P1 N1,5.67,5.67,5.67,90,90,90,cubic,Pm-3m,0.000401,-12.64062676,0.07293528,1.025654681,FALSE,2.804307432,0,FALSE,182.284263,,
mp-1013554,Sr3PN,5,Sr3 P1 N1,5.05920313,5.05920313,5.05920313,90,90,90,cubic,Pm-3m,0,-13.66628144,-0.952719401,0,TRUE,3.947557356,0.5197,TRUE,129.4930174,"{'voigt': 49.284, 'reuss': 49.284, 'vrh': 49.284}","{'voigt': 40.515, 'reuss': 39.119, 'vrh': 39.817}"
mp-19944,Sr3PbO,5,Sr3 Pb1 O1,5.17250966,5.17250966,5.17250966,90,90,90,cubic,Pm-3m,7.00E-07,-4.333599782,-1.586021313,0,TRUE,5.832228257,0,FALSE,138.3897521,,
mp-1013541,Sr3SbAs,5,Sr3 Sb1 As1,6.11,6.11,6.11,90,90,90,cubic,Pm-3m,0.0001187,-3.25092023,-0.475638621,0.617104965,FALSE,3.345417302,0,FALSE,228.099131,,
mp-1013561,Sr3SbAs,5,Sr3 Sb1 As1,5.848444,5.848444,5.848444,90,90,90,cubic,Pm-3m,1.15E-05,-3.686491058,-0.91120945,0.181534137,FALSE,3.81463441,0.128,TRUE,200.0419169,,
mp-1013534,Sr3SbN,5,Sr3 Sb1 N1,6.221556,6.221556,6.221556,90,90,90,cubic,Pm-3m,0.2897292,-3.053826614,0.455086037,1.483031114,FALSE,2.748643645,0,FALSE,240.8224906,,
mp-7752,Sr3SbN,5,Sr3 Sb1 N1,5.19496514,5.19496514,5.19496514,90,90,90,cubic,Pm-3m,0,-4.536857728,-1.027945077,0,TRUE,4.72136492,0.2577,TRUE,140.1999675,"{'voigt': 45.977, 'reuss': 45.977, 'vrh': 45.977}","{'voigt': 38.147, 'reuss': 38.085, 'vrh': 38.116}"
mp-1013535,Sr3SbP,5,Sr3 Sb1 P1,6.100651,6.100651,6.100651,90,90,90,cubic,Pm-3m,0.0002152,-3.245869344,-0.321517537,0.733077114,FALSE,3.039412006,0,FALSE,227.0536789,,
mp-1013588,Sr3SbP,5,Sr3 Sb1 P1,5.74,5.74,5.74,90,90,90,cubic,Pm-3m,0.0013447,-3.882774534,-0.958422727,0.096171924,FALSE,3.649072067,0.3419,TRUE,189.119224,"{'voigt': 31.726, 'reuss': 31.726, 'vrh': 31.726}","{'voigt': 24.92, 'reuss': 20.249, 'vrh': 22.585}"
mp-30949,Sr3SiO,20,Sr3 Si1 O1,7.15066135,7.13016274,10.10705953,90,90,90,ortho,Pnma,0,-4.533977228,-1.443864567,0,TRUE,3.956389439,0.4234,TRUE,515.312262,,
mp-7961,Sr3SnO,5,Sr3 Sn1 O1,5.1518472,5.1518472,5.1518472,90,90,90,cubic,Pm-3m,3.00E-07,-4.449498488,-1.642535062,0,TRUE,4.828065205,0,FALSE,136.7379048,"{'voigt': 44.124, 'reuss': 44.124, 'vrh': 44.124}","{'voigt': 35.923, 'reuss': 35.626, 'vrh': 35.774}"
mp-979294,SrAgO3,5,Sr1 Ag1 O3,4.110248,4.110248,4.110248,90,90,90,cubic,Pm-3m,0.0931653,-5.262007024,-1.386157267,0.113558919,FALSE,5.822637137,0,FALSE,69.43909948,"{'voigt': 110.647, 'reuss': 110.647, 'vrh': 110.647}","{'voigt': 49.977, 'reuss': 41.078, 'vrh': 45.527}"
mp-1218359,SrAl3Ag,5,Sr1 Al3 Ag1,4.311460145,4.311459145,6.586643958,70.93354534,70.93354555,90.09816396,tet,I4mm,0,-11.63681832,-0.297251677,0,TRUE,4.228205136,0,FALSE,108.5632024,,
mp-1068011,SrAlH3,5,Sr1 Al1 H3,4.585462,4.585462,4.585462,90,90,90,cubic,Pm-3m,0,-6.214976065,0.233643255,0.69901291,FALSE,2.025819567,0.0744,FALSE,96.41604136,,
mp-978862,SrAlO3,5,Sr1 Al1 O3,3.835761,3.835761,3.835761,90,90,90,cubic,Pm-3m,0.9822714,-7.088056108,-3.031678721,0.050849522,FALSE,4.78425504,0,FALSE,56.43579113,,
mp-978851,SrAsO3,5,Sr1 As1 O3,3.974879,3.974879,3.974879,90,90,90,cubic,Pm-3m,7.64E-05,-6.5149823,-2.273695573,0.24607857,FALSE,5.566876225,0,FALSE,62.80174892,"{'voigt': 144.779, 'reuss': 144.779, 'vrh': 144.779}","{'voigt': 86.781, 'reuss': 86.252, 'vrh': 86.516}"
mp-1187146,SrAuO3,5,Sr1 Au1 O3,4.13584,4.13584,4.13584,90,90,90,cubic,Pm-3m,0.0005236,-5.382753778,-1.420715157,0.27454359,FALSE,7.806570144,0,FALSE,70.74425666,,
mp-1189840,SrBO3,20,Sr1 B1 O3,5.804943,6.846787,7.057235,90,90,90,ortho,Pnma,3.9986132,-7.467527673,-2.824387097,0.062468807,FALSE,3.467507604,0.4524,FALSE,280.4912749,,
mp-1187143,SrBeO3,5,Sr1 Be1 O3,3.733877,3.733877,3.733877,90,90,90,cubic,Pm-3m,1.9990117,-6.24200261,-2.186857816,0.376971985,FALSE,4.613479639,0,FALSE,52.0571062,,
mp-29164,SrBiO3,20,Sr1 Bi1 O3,5.954964347,6.14411663,8.505410727,90,90.0347993,90,mono,P2_1/c,0,-6.345887718,-2.260618635,0,TRUE,7.355103194,0.3106,FALSE,311.1958718,,
mp-28476,SrBiSe3,80,Sr1 Bi1 Se3,4.267801,16.126631,33.812572,90,90,90,ortho,P2_12_12_1,0.0153483,-4.509666121,-1.295626754,0,TRUE,6.09062038,0.7976,TRUE,2327.158786,,
mp-1218370,SrCO3,5,Sr1 C1 O3,4.388278395,4.388278395,4.388278806,72.25939607,72.25939607,72.25939194,trig,R32,0.0004265,-7.82071605,-2.667720731,0.031704978,FALSE,3.288793327,4.5332,FALSE,74.53905777,,
mp-33746,SrCO3,10,Sr1 C1 O3,4.371562498,4.371562498,8.370437804,71.76304182,71.76304182,72.89891294,mono,C2/m,0.0021433,-7.816263382,-2.663268063,0.036157646,FALSE,3.481020604,4.2823,FALSE,140.8457942,,
mp-38035,SrCO3,10,Sr1 C1 O3,6.916295304,6.916295304,6.916295009,44.68017163,44.68017163,44.68016882,trig,R-3c,5.43E-05,-7.82919642,-2.6762011,0.023224608,FALSE,3.295351426,4.6569,FALSE,148.7814343,,