mp_id,composition,a_edge (angstrom),b_edge (angstrom),c_edge (angstrom),alpha_ang (deg),beta_ang (deg),gamma_ang (deg),crystal_system,space_group,formation_energy (eV/atom),energy_above_hull (eV/atom),band_gap (eV),A_site,B_site,X_site
mp-754342,Sc1 Fe1 O3,3.369388344,3.369388344,11.944255,90.0,90.0,120.0000067,hex_,P6_3/mmc,-2.76496437,0.072947627,0.0,Sc,Fe,O
mp-756419,Sc1 Fe1 O3,5.023174482,5.397466407,7.427368277,90.10703547,89.65309211,90.02223936,mono,P2_1/c,-2.699800308,0.138111689,1.2694,Sc,Fe,O
mp-769734,Sc1 Fe1 O3,5.102012,5.42055,7.673745,90.0,90.0,90.0,ortho,Pnma,-2.753965817,0.08394618,1.7076,Sc,Fe,O
mp-771123,Sc1 Fe1 O3,5.847179636,5.847179636,11.581486,90.0,90.0,119.9999959,hex_,P6_3cm,-2.779514111,0.058397886,0.9223,Sc,Fe,O
mp-754165,Sc1 Ga1 O3,3.296685446,3.296686019,11.76513134,90.00001006,89.99999448,119.9999776,hex_,P6_3/mmc,-3.101253308,0.017611347,2.6997,Sc,Ga,O
mp-754239,Sc1 Ga1 O3,5.064654,5.383967,7.58976,90.0,90.0,90.0,ortho,Pnma,-3.042402545,0.07646211,4.3308,Sc,Ga,O
mp-769079,Sc1 Ga1 O3,5.734680531,5.734676261,11.53189412,90.00004384,89.99993244,119.9999709,hex_,P6_3cm,-3.114334094,0.004530561,3.1715,Sc,Ga,O
mp-768358,Sc1 In1 O3,3.466400468,3.466400468,12.748711,90.0,90.0,120.0000089,hex_,P6_3/mmc,-2.907754082,0.073645932,2.1982,Sc,In,O
mp-624739,Sc1 Ir3 C1,4.685136,4.685136,4.685136,90.0,90.0,90.0,cubic,Pm-3m,2.918988692,3.415863378,0.0,Sc,C,Ir
mp-1105811,Sc1 Mn1 O3,5.116733912,5.422535,7.904384292,89.99940596,94.15850618,90.00043305,mono,P2_1/c,-2.941352322,0.049973921,1.798,Sc,Mn,O
mp-18954,Sc1 Mn1 O3,5.857486453,5.857485989,11.18225755,89.99999734,89.9999965,120.00033,hex_,P6_3cm,-2.983540803,0.007785439,0.0,Sc,Mn,O
mp-1246879,Sc1 Mo1 N3,9.28047584,5.716124631,7.82068618,106.0508537,102.8980904,119.8391646,tri,P-1,-0.937271284,0.122036312,1.2502,Sc,Mo,N
mp-1018635,Sc1 Pd3 C1,4.21238,4.21238,4.21238,90.0,90.0,90.0,cubic,Pm-3m,-0.185254236,0.499212708,0.0,Sc,C,Pd
mp-973123,Sc1 Pd1 O3,4.078754,4.078754,4.078754,90.0,90.0,90.0,cubic,Pm-3m,-1.540523892,0.82006573,0.0,Sc,Pd,O
mp-1018628,Sc1 Pt3 C1,4.247042,4.247042,4.247042,90.0,90.0,90.0,cubic,Pm-3m,-0.177972178,0.654000998,0.0,Sc,C,Pt
mp-10712,Sc1 Rh3 C1,4.07473446,4.07473446,4.07473446,90.0,90.0,90.0,cubic,Pm-3m,-0.494811678,0.0,0.0,Sc,C,Rh
mp-1188449,Sc1 Rh1 O3,5.122828,5.541807,7.574297,90.0,90.0,90.0,ortho,Pnma,-2.48175585,0.051140098,1.0497,Sc,Rh,O
mp-1196890,Sc1 Rh1 O3,7.531681,7.560377,10.41708387,46.86314749,90.0,90.0,mono,P2_1/c,-2.508281684,0.024614264,1.1199,Sc,Rh,O
mp-7130,Sc1 Ru3 C1,4.06130662,4.06130662,4.06130662,90.0,90.0,90.0,cubic,Pm-3m,-0.276731999,0.0,0.0,Sc,C,Ru
mp-3129,Sc1 Si3 Ni1,10.48199976,10.48199976,3.82633472,90.0,90.0,158.9387153,ortho,Cmmm,-0.57843569,0.0,0.0,Sc,Ni,Si
mp-1186993,Sc1 Si1 O3,3.582486,3.582486,3.582486,90.0,90.0,90.0,cubic,Pm-3m,-2.764408986,0.70782659,0.0,Sc,Si,O
mp-981376,Sc1 Sn1 O3,4.10743,4.10743,4.10743,90.0,90.0,90.0,cubic,Pm-3m,-2.270678537,0.6724759,0.0,Sc,Sn,O
mp-1101375,Sc1 Ti1 O3,5.641917911,5.641917911,5.641917629,55.41961692,55.41961692,55.41962213,trig,R-3,-3.56688413,0.069202008,0.0,Sc,Ti,O
mp-754092,Sc1 Ti1 O3,5.155586,5.519722,7.539189,90.0,90.0,90.0,ortho,Pna2_1,-3.539447764,0.096638374,0.0,Sc,Ti,O
mp-752429,Sc1 Tl1 O3,5.518153,5.681516,8.177845,90.0,90.0,90.0,ortho,Pnma,-2.455815972,0.078769002,1.2891,Sc,Tl,O
mp-7276,Sc1 U1 S3,3.75350386,6.400398772,9.22203523,90.0001007,90.0,107.0510791,ortho,Cmcm,-2.070707882,0.0,0.0,Sc,U,S
mp-756546,Sc1 V1 O3,5.402772,7.81713,5.109025,89.99944111,90.00002182,90.00006846,ortho,Pnma,-3.202248178,0.049391989,1.5605,Sc,V,O
mp-972978,Sc1 V1 O3,3.786401,3.786401,3.786401,90.0,90.0,90.0,cubic,Pm-3m,-2.525851478,0.725788689,0.0,Sc,V,O
mp-1246967,Sc1 W1 N3,5.707052399,6.750560317,8.711637156,89.93581839,105.7218737,96.11014759,tri,P-1,-1.024203774,0.135762279,1.2255,Sc,W,N
mp-1186999,Si1 Ag1 O3,3.621317,3.621317,3.621317,90.0,90.0,90.0,cubic,Pm-3m,-1.654687447,0.486040065,0.0,Si,Ag,O
mp-972822,Si1 B1 O3,3.336259,3.336259,3.336259,90.0,90.0,90.0,cubic,Pm-3m,-0.988864835,1.919687921,0.0,Si,B,O
mp-972839,Si1 B1 O3,3.502656,3.502656,3.502656,90.0,90.0,90.0,cubic,Pm-3m,-0.999580197,1.908972559,0.0,Si,B,O
mp-972827,Si1 Bi1 O3,3.798666,3.798666,3.798666,90.0,90.0,90.0,cubic,Pm-3m,-1.820326181,0.722310424,0.0,Si,Bi,O
mp-1209042,Si1 C1 Cl3,9.596517176,9.596517176,9.653504712,84.01397088,84.01397088,101.0546715,mono,C2/m,-1.184103157,0.142805605,3.4239,Si,C,Cl
mp-769171,Si1 Ge1 O3,5.420948,9.432472,20.06184,90.0,90.0,90.0,ortho,Pbca,-2.47739607,0.133299435,3.0391,Si,Ge,O
mp-28289,Si1 H3 F1,7.994109,4.865885,8.650176744,64.92894667,90.0,90.0,mono,P2_1/c,-0.944629044,0.020578798,6.1692,Si,F,H
mp-28538,Si1 H3 I1,4.725467145,8.57542253,10.64149949,90.0,102.7791678,90.0,mono,P2_1/c,-0.281870845,0.0,4.2188,Si,I,H
mp-1016874,Si1 Hg1 O3,3.664827,3.664827,3.664827,90.0,90.0,90.0,cubic,Pm-3m,-1.720048744,0.497673056,0.0,Si,Hg,O
mp-1186997,Si1 Mo1 O3,3.645503,3.645503,3.645503,90.0,90.0,90.0,cubic,Pm-3m,-1.674858801,0.895306562,0.0,Si,Mo,O
mp-1219220,Si1 P1 N3,4.69664,5.275995,5.293046049,60.27041811,90.0,90.0,mono,P2_1,-0.861556925,0.016148769,4.3483,Si,P,N
mp-36053,Si1 P1 N3,5.302685307,5.302685307,9.419933792,89.90810573,89.90810573,120.2236457,mono,Cc,-0.854378343,0.023327351,3.7651,Si,P,N
mp-21723,Si1 Pb1 O3,7.0522272,11.22191635,13.00114339,60.35943029,90.0,90.0,mono,P2/c,-2.595926484,0.0,3.1905,Si,Pb,O
mp-978489,Si1 Pb1 O3,3.748178,3.748178,3.748178,90.0,90.0,90.0,cubic,Pm-3m,-2.171974545,0.423951939,1.1848,Si,Pb,O
mp-978490,Si1 Pd1 O3,3.598276,3.598276,3.598276,90.0,90.0,90.0,cubic,Pm-3m,-1.563445495,0.716183873,0.0,Si,Pd,O
mp-776110,Si1 Sn1 O3,7.049169,11.394763,13.09830116,60.05563922,90.0,90.0,mono,P2/c,-2.586283002,0.029296766,2.6768,Si,Sn,O
mp-978493,Si1 Sn1 O3,3.712219,3.712219,3.712219,90.0,90.0,90.0,cubic,Pm-3m,-2.125932824,0.489646943,0.7594,Si,Sn,O
mp-7144,Sm3 Al1 C1,5.01642188,5.01642188,5.01642188,90.0,90.0,90.0,cubic,Pm-3m,-0.256542093,0.002639175,0.0,Al,C,Sm
mp-10674,Sm3 Al1 N1,5.468393,5.468393,5.468393,90.0,90.0,90.0,cubic,Pm-3m,1.001796234,1.970402622,0.0,Al,N,Sm
mp-1094052,Sm3 Al1 N1,4.90354893,4.90353862,4.90353862,90.0,90.0,90.0,cubic,Pm-3m,-0.968606388,0.0,0.0,Al,N,Sm
mp-10602,Sm3 Ga1 C1,5.00216,5.00216,5.00216,90.0,90.0,90.0,cubic,Pm-3m,-0.315997746,0.022991253,0.0,Ga,C,Sm
mp-20229,Sm3 In1 C1,5.710743,5.710743,5.710743,90.0,90.0,90.0,cubic,Pm-3m,1.582556494,1.872080728,0.0,In,C,Sm
mp-19716,Sm3 In1 N1,4.9428586,4.94285653,4.94285653,90.0,90.0,90.0,cubic,Pm-3m,-1.105729228,0.0,0.0,In,N,Sm
mp-19758,Sm3 Pb1 C1,5.80783,5.80783,5.80783,90.0,90.0,90.0,cubic,Pm-3m,1.581207337,1.955614291,0.0,Pb,C,Sm
mp-10718,Sm3 Sn1 C1,5.73661,5.73661,5.73661,90.0,90.0,90.0,cubic,Pm-3m,1.426021248,1.886555795,0.0,Sn,C,Sm
mp-1206990,Sm3 Sn1 N1,4.91656245,4.91656245,4.91656245,90.0,90.0,90.0,cubic,Pm-3m,-1.066682363,0.0,0.0,Sn,N,Sm
mp-10606,Sm3 Tl1 C1,5.04207852,5.04207852,5.04207852,90.0,90.0,90.0,cubic,Pm-3m,-0.338595673,0.0,0.0,Tl,C,Sm
mp-1075933,Sm1 Ag1 O3,4.068937,4.068937,4.068937,90.0,90.0,90.0,cubic,Pm-3m,-1.694632306,0.423685474,0.0,Sm,Ag,O
mp-1219105,Sm1 Al3 Cu1,6.06681949,6.06681949,6.06681949,139.74439,139.74439,58.24161222,tet,I4mm,-0.516801622,0.0,0.0,Sm,Cu,Al
mp-1208898,Sm1 Al3 Ni1,4.07345316,8.15999999,10.70423674,90.0,90.0,90.0,ortho,Pnma,-0.5856401,0.0,0.0,Sm,Ni,Al
mp-1187025,Sm1 Al1 O3,5.312557,5.358413,7.531084,90.0,90.0,90.0,ortho,Pnma,-3.692610325,0.005184445,4.0771,Sm,Al,O
mp-7405,Sm1 Al1 O3,5.28319658,5.2813461,7.46953229,90.0,90.0,90.0,ortho,Pnma,-3.69779477,0.0,4.8614,Sm,Al,O
mp-1173486,Sm1 B1 O3,4.298529,8.035377322,8.868765,90.0,90.0,122.3405535,ortho,Pnma,-3.451781642,0.036507844,4.6744,Sm,B,O
mp-760477,Sm1 B1 O3,4.052414513,4.052414513,8.811024,90.0,90.0,117.3699414,ortho,Ama2,-3.427468959,0.060820528,4.3574,Sm,B,O
mp-8627,Sm1 B1 O3,6.238567888,6.494456475,6.490059025,93.07748134,107.5582598,107.9284307,tri,P-1,-3.488289486,0.0,5.2713,Sm,B,O
mp-3428,Sm1 B1 Pd3,4.359961,4.359961,4.359961,90.0,90.0,90.0,cubic,Pm-3m,-0.615200365,0.107939257,0.0,Sm,B,Pd
mp-4982,Sm1 B1 Rh3,4.20876944,4.20876944,4.20876944,90.0,90.0,90.0,cubic,Pm-3m,-0.734807115,0.0,0.0,Sm,B,Rh
mp-972448,Sm1 B1 S3,6.05639122,7.40821426,8.86847161,90.0,90.0,90.0,ortho,Pna2_1,-1.534686706,0.01549881,2.4295,Sm,B,S
mp-978503,Sm1 Be1 O3,3.626649,3.626649,3.626649,90.0,90.0,90.0,cubic,Pm-3m,-2.887656259,0.284462296,0.0,Sm,Be,O
mp-1219113,Sm1 Bi1 S3,4.0460441,10.90302464,11.01537037,90.0,90.0,90.0,ortho,Pnma,-1.493757744,0.010728265,1.6508,Sm,Bi,S
mp-1219075,Sm1 Bi1 Te3,10.98769055,10.98769055,10.98769005,23.32620416,23.32620416,23.32620596,trig,R3m,-0.958065657,0.029470171,0.9818,Sm,Bi,Te
mp-20016,Sm1 Co1 O3,5.2555446,5.38013421,7.49230809,90.0,90.0,90.0,ortho,Pnma,-2.567496455,0.0,0.0,Sm,Co,O
mp-22549,Sm1 Co1 O3,3.756973,3.756973,3.756973,90.0,90.0,90.0,cubic,Pm-3m,-2.436943344,0.130553111,0.8039,Sm,Co,O
mp-569163,Sm1 Co1 Sb3,6.183406,12.107378,12.597188,90.0,90.0,90.0,ortho,Pbcm,-0.672595153,0.013374388,0.0,Sm,Co,Sb
mp-972659,Sm1 Co1 Si3,5.57469554,5.57469554,5.57469554,137.0459383,137.0459383,62.36737665,tet,I4mm,-0.623150037,0.0,0.0,Sm,Co,Si
mp-13009,Sm1 Cr1 Ge3,6.133340649,6.133340649,5.713972,90.0,90.0,120.000007,hex_,P6_3/mmc,-0.384108376,0.04239723,0.0,Sm,Cr,Ge
mp-1105788,Sm1 Cr1 O3,5.35209304,5.54722294,7.65437822,90.0,90.0,90.0,ortho,Pnma,-3.17107196,0.0,2.4802,Sm,Cr,O
mp-19257,Sm1 Cr1 O3,3.877573,3.877573,3.877573,90.0,90.0,90.0,cubic,Pm-3m,-2.973790204,0.197281756,1.7362,Sm,Cr,O
mp-15932,Sm1 Cr1 S3,3.7509318,7.80132717,12.91934762,90.0,90.0,90.0,ortho,Pnma,-1.680146263,0.001032732,0.0,Sm,Cr,S
mp-1208660,Sm1 Cr1 Sb3,6.086664,6.231522,13.037691,90.0,90.0,90.0,ortho,Pbcm,-0.578927262,0.016109635,0.0,Sm,Cr,Sb
mp-1076706,Sm1 Cu1 O3,3.809085,3.809085,3.809085,90.0,90.0,90.0,cubic,Pm-3m,-2.287715098,0.124386208,0.0,Sm,Cu,O
mp-770767,Sm1 Cu1 O3,5.28006365,6.29098458,7.09825327,90.0,90.0,90.0,ortho,Pnma,-2.412101307,0.0,0.1218,Sm,Cu,O
mp-772548,Sm1 Cu1 O3,5.334263108,5.334263108,5.334263034,62.4445276,62.4445276,62.44452435,trig,R-3c,-2.37862603,0.033475276,0.0,Sm,Cu,O
mp-756452,Sm1 Dy1 O3,5.801912,6.059173,8.477487,90.0,90.0,90.0,ortho,Pnma,-3.858546333,0.074952791,4.822,Sm,Dy,O
mp-754203,Sm1 Er1 O3,5.743181,6.000227,8.429139,90.0,90.0,90.0,ortho,Pnma,-3.900011528,0.059511754,4.8916,Sm,Er,O
mp-1099588,Sm1 Fe1 O3,3.909141,3.909141,3.909141,90.0,90.0,90.0,cubic,Pm-3m,-2.581433444,0.222370185,0.7235,Sm,Fe,O
mp-1105437,Sm1 Fe1 O3,7.90017,6.194917,6.619385,90.0,90.0,90.0,ortho,Pnma,-2.468971893,0.334831737,0.1274,Sm,Fe,O
mp-20243,Sm1 Fe1 O3,5.388497242,5.6492765,7.715669676,89.99959882,90.00374659,89.99995895,ortho,Pnma,-2.80380363,0.0,1.545,Sm,Fe,O
mp-1201728,Sm1 Fe1 Sb3,6.152078,12.136628,12.721705,90.0,90.0,90.0,ortho,Pbcm,-0.595918147,0.004467354,0.0,Sm,Fe,Sb
mp-1218984,Sm1 Ga3 Ag1,4.22360167,4.22360167,6.19404599,70.06581825,70.06581825,90.0,tet,I-4m2,-0.527149345,0.0,0.0,Sm,Ag,Ga
mp-1219033,Sm1 Ga3 Au1,4.244801622,4.244801622,6.201054685,70.12005672,70.12005672,90.19452555,tet,I4mm,-0.579579002,0.0,0.0,Sm,Au,Ga
mp-1219014,Sm1 Ga3 Cu1,6.040623355,6.040623355,6.040623355,140.1615011,140.1615011,57.60816426,tet,I-4m2,-0.566693558,0.0,0.0,Sm,Cu,Ga
mp-1219023,Sm1 Ga3 Ni1,6.046686036,6.046686036,6.046686036,140.379089,140.379089,57.27815595,tet,I-4m2,-0.532266746,0.051989158,0.0,Sm,Ni,Ga
mp-1219024,Sm1 Ga3 Pd1,6.12812203,6.12812203,6.12812203,140.2990542,140.2990542,57.39950779,tet,I-4m2,-0.67897519,0.0,0.0,Sm,Pd,Ga
mp-1219019,Sm1 Ga3 Pt1,6.140150795,6.140150795,6.140150795,140.5606709,140.5606709,57.00298115,tet,I-4m2,-0.716080447,0.00175275,0.0,Sm,Pt,Ga
mp-978504,Sm1 Ga1 O3,3.862137,3.862137,3.862137,90.0,90.0,90.0,cubic,Pm-3m,-2.912901177,0.210192991,2.872,Sm,Ga,O
mp-1219055,Sm1 Gd1 S3,3.96655604,7.40210746,15.38183537,90.0,90.0,90.0,ortho,Pnma,-2.378116166,0.066398143,0.6825,Sm,Gd,S
mp-978926,Sm1 Ge1 O3,3.946684,3.946684,3.946684,90.0,90.0,90.0,cubic,Pm-3m,-2.458910103,0.508299215,0.0,Sm,Ge,O
mp-1206999,Sm1 Ge1 Pd3,4.714479,4.714479,4.714479,90.0,90.0,90.0,cubic,Pm-3m,-0.466555116,0.339889576,0.0,Sm,Ge,Pd
mp-755717,Sm1 Ho1 O3,5.765116,6.024105,8.446944,90.0,90.0,90.0,ortho,Pnma,-3.877823319,0.066932637,4.5947,Sm,Ho,O
mp-1209783,Sm1 In3 Pt1,9.82521714,9.82521714,9.82521714,90.0,90.0,90.0,cubic,Pm-3n,-0.563849847,0.006781797,0.0,Sm,Pt,In
mp-752437,Sm1 In1 O3,5.622973,5.952571,8.238917,90.0,90.0,90.0,ortho,Pnma,-2.897616841,0.030393087,2.9444,Sm,In,O
mp-1101371,Sm1 Lu1 O3,5.699036,5.958661,8.299142,90.0,90.0,90.0,ortho,Pnma,-3.953322615,0.039545404,4.7782,Sm,Lu,O
mp-1208832,Sm1 Lu1 Se3,4.07736948,11.48893361,11.77183871,71.12824409,90.0,90.0,mono,P2_1/m,-2.174970956,0.0,0.7935,Sm,Lu,Se
mp-1232244,Sm1 Mg1 S3,6.966321517,6.966321517,6.822820184,74.23197223,74.23197223,110.9817349,mono,C2/m,-1.533595569,0.373260237,0.2106,Sm,Mg,S
mp-1232277,Sm1 Mg1 S3,6.855687,6.855686661,17.754389,90.0,90.0,119.9999968,trig,R-3,-1.60166495,0.305190857,0.0,Sm,Mg,S
mp-1232154,Sm1 Mg1 Se3,8.590458495,11.936868,7.771778929,90.0,135.2983852,90.0,mono,C2/m,-1.422266986,0.323557296,0.0,Sm,Mg,Se
mp-1232201,Sm1 Mg1 Se3,6.991373,6.991373074,19.476678,90.0,90.0,119.9999949,trig,R-3,-1.481431618,0.264392664,0.0,Sm,Mg,Se
mp-1237966,Sm1 Mg1 Se3,7.365345897,7.365345897,6.893110344,76.29442333,76.29442333,116.9713984,mono,C2/m,-1.380165684,0.365658598,0.0,Sm,Mg,Se
mp-1075973,Sm1 Mn1 O3,3.895077,3.895077,3.895077,90.0,90.0,90.0,cubic,Pm-3m,-2.791607398,0.19960384,0.0,Sm,Mn,O
mp-22203,Sm1 Mn1 O3,5.35857691,5.63273957,7.66998512,90.0,90.0,90.0,ortho,Pnma,-2.991211238,0.0,0.2744,Sm,Mn,O
mp-8466,Sm1 Ni1 Ge3,4.13327889,4.10147712,10.99297637,100.7515009,90.0,90.0,ortho,Cmmm,-0.597856227,0.0,0.0,Sm,Ni,Ge
mp-1099668,Sm1 Ni1 O3,3.74007269,3.74008343,3.74006907,90.0,90.0,90.0,cubic,Pm-3m,-2.330298032,0.122650203,0.0,Sm,Ni,O
mp-22495,Sm1 Ni1 O3,5.28682054,5.4497859,7.53088649,90.0002162,90.00051183,89.99971112,ortho,Pnma,-2.452948235,0.0,0.0,Sm,Ni,O
mp-568805,Sm1 Ni1 Sb3,6.22180732,12.58594006,18.27256432,90.0,90.0,90.0,ortho,Pbcm,-0.716910393,0.0,0.0,Sm,Ni,Sb
mp-981250,Sm1 Pu1 O3,4.353633,4.353633,4.353633,90.0,90.0,90.0,cubic,Pm-3m,-2.849570498,0.733932247,0.0,Sm,Pu,O
mp-7167,Sm1 Rh3 C1,4.18469494,4.18469494,4.18469494,90.0,90.0,90.0,cubic,Pm-3m,-0.432669778,0.0,0.0,Sm,C,Rh
mp-3317,Sm1 Rh1 O3,5.29624651,5.8243809,7.70683536,90.0,90.0,90.0,ortho,Pnma,-2.528890302,0.0,0.7331,Sm,Rh,O
mp-1207179,Sm1 Sb1 O3,4.269023,4.269023,4.269023,90.0,90.0,90.0,cubic,Pm-3m,-2.017206656,0.860086121,0.0,Sm,Sb,O
mp-1218986,Sm1 Sb1 Te3,4.403874209,4.403874209,10.83810396,78.27782464,78.27782464,59.99999687,trig,R3m,-0.995254029,0.058006843,0.8488,Sm,Sb,Te
mp-31118,Sm1 Sc1 O3,5.52626673,5.78431658,7.97599084,90.0,90.0,90.0,ortho,Pnma,-3.921264459,0.0,4.3669,Sm,Sc,O
mp-1188840,Sm1 Sc1 S3,6.45689741,7.10807002,9.55313825,90.0,90.0,90.0,ortho,Pnma,-2.297249002,0.0,1.8487,Sm,Sc,S
mp-1068639,Sm1 Si3 Ir1,4.21883581,4.21883581,5.737766188,111.5699773,111.5699773,90.0,tet,I4mm,-0.860587321,0.0,0.0,Sm,Ir,Si
mp-10283,Sm1 Si3 Ni1,3.956884495,4.01565305,10.7364635,90.00000091,100.6072144,89.99999978,ortho,Cmmm,-0.633537457,0.037302575,0.0,Sm,Ni,Si
mp-1068782,Sm1 Si3 Os1,5.785105782,5.785105782,5.785105782,137.2923788,137.2923788,61.98850036,tet,I4mm,-0.663436041,0.0,0.0,Sm,Os,Si
mp-1207214,Sm1 Si3 Pt1,4.320298,4.320298,5.687626758,112.321168,112.321168,90.0,tet,I4mm,-0.729758973,0.029508607,0.0,Sm,Pt,Si
mp-1069765,Sm1 Si3 Rh1,5.722168259,5.722168259,5.722168259,136.9642062,136.9642062,62.49312768,tet,I4mm,-0.795413665,0.0,0.0,Sm,Rh,Si
mp-978506,Sm1 Si1 O3,3.768474,3.768474,3.768474,90.0,90.0,90.0,cubic,Pm-3m,-2.8364629,0.660038605,0.0,Sm,Si,O
mp-1207210,Sm1 Si1 Pt3,4.06509942,4.06509942,5.46109093,90.0,90.0,90.0,tet,P4mm,-1.065603345,0.0,0.0,Sm,Si,Pt
mp-1201411,Sm1 Sn3 Ru1,9.71524129,9.71521403,9.71522583,89.999954,90.00010415,90.00009926,cubic,Pm-3n,-0.465869096,0.0,0.0,Sm,Ru,Sn
mp-1099583,Sm1 Ti1 O3,3.913789,3.913789,3.913789,90.0,90.0,90.0,cubic,Pm-3m,-3.443943147,0.196237995,0.0,Sm,Ti,O
mp-22416,Sm1 Ti1 O3,5.435781,5.7483,7.790579,90.0,90.0,90.0,ortho,Pnma,-3.591573495,0.048607647,0.0,Sm,Ti,O
mp-754787,Sm1 Tl1 O3,5.702096,6.071963,8.641722,90.0,90.0,90.0,ortho,Pnma,-2.408038135,0.073156752,1.1667,Sm,Tl,O
mp-776439,Sm1 Tm1 O3,5.731255,5.992965,8.403303,90.0,90.0,90.0,ortho,Pnma,-3.924406718,0.051605967,4.9205,Sm,Tm,O
mp-1188225,Sm1 V1 O3,5.36908064,5.69279481,7.64646575,90.0,90.0,90.0,ortho,Pnma,-3.24973111,0.0,1.5136,Sm,V,O
mp-20702,Sm1 V1 O3,3.904088,3.904088,3.904088,90.0,90.0,90.0,cubic,Pm-3m,-2.950685794,0.299045315,0.0,Sm,V,O
mp-1173461,Sm1 V1 Sb3,6.256508,9.011929,9.677231,90.0,90.0,90.0,ortho,Pbcm,-0.346280064,0.291217203,0.0,Sm,V,Sb
mp-1173542,Sm1 V1 Sb3,10.530323,6.919452,8.419677,90.0,90.0,90.0,ortho,Pbcm,-0.086872382,0.550624885,0.0,Sm,V,Sb
mp-1208885,Sm1 V1 Sb3,6.037017,6.270428,13.090781,90.0,90.0,90.0,ortho,Pbcm,-0.632401732,0.005095534,0.0,Sm,V,Sb
mp-755685,Sm1 Y1 O3,5.879084,6.009628,8.508557,90.0,90.0,90.0,ortho,Pna2_1,-3.844085645,0.06382655,4.2852,Sm,Y,O
mp-772724,Sn1 B1 O3,5.201150461,5.201150461,12.49287574,83.76979993,83.76979993,117.8174073,mono,Cc,-2.273767179,0.090524667,2.4171,Sn,B,O
mp-972442,Sn1 B1 O3,3.492841,3.492841,3.492841,90.0,90.0,90.0,cubic,Pm-3m,-1.23579385,1.128497996,0.0,Sn,B,O
mp-1068389,Sn1 C1 Cl3,5.269072,5.269072,5.269072,90.0,90.0,90.0,cubic,Pm-3m,0.517033407,1.651449031,0.0,Sn,C,Cl
mp-1068985,Sn1 C1 Cl3,4.997462696,4.997462696,4.997462639,80.06370851,80.06370851,80.06370911,trig,R3m,0.156276563,1.290692187,0.0,Sn,C,Cl
mp-729742,Sn1 C1 Cl3,7.183292848,7.183292848,3.890799509,87.09700298,87.09700298,123.6812497,mono,Cm,0.030411835,1.164827459,0.787,Sn,C,Cl
mp-1101394,Sn1 Ge1 O3,7.076874082,7.076874082,7.076874023,44.31413977,44.31413977,44.31414868,trig,R-3,-1.803125897,0.142748462,2.5994,Sn,Ge,O
mp-1187065,Sn1 Ge1 O3,3.864235,3.864235,3.864235,90.0,90.0,90.0,cubic,Pm-3m,-1.632876663,0.312997696,0.0,Sn,Ge,O
mp-769144,Sn1 Ge1 O3,7.15438283,11.74797256,13.32631948,60.08063355,90.0,90.0,mono,P2/c,-1.906145925,0.039728434,2.2811,Sn,Ge,O
mp-5045,Sn1 Ge1 S3,10.73326962,6.844584747,7.536298494,73.92042028,90.0,90.0,mono,P2_1/c,-0.684291554,0.0,1.6591,Sn,Ge,S
mp-1016837,Sn1 Hg1 O3,4.081489,4.081489,4.081489,90.0,90.0,90.0,cubic,Pm-3m,-1.179672493,0.338839703,0.0,Sn,Hg,O
mp-13554,Sn1 Hg1 O3,5.767216749,5.767216749,5.767216638,58.93092441,58.93092441,58.93092158,trig,R-3c,-1.453517255,0.064994941,0.0,Sn,Hg,O
mp-1079200,Sn1 N1 F3,5.790100398,5.790100398,5.790100743,64.87288449,64.87288449,64.87289074,trig,R-3,-0.863850279,1.339848758,0.0,Sn,N,F
mp-1080727,Sn1 N1 F3,6.234929741,6.234929741,6.805481067,62.26571902,62.26571902,60.19598052,mono,C2,-0.96560564,1.238093396,0.0,Sn,N,F
mp-1179476,Sn1 N1 F3,6.79242556,3.647111282,6.402005476,99.00096045,99.81975849,70.48878992,tri,P-1,-1.445497348,0.758201688,1.7623,Sn,N,F
mp-1237814,Sn1 N1 F3,7.067764272,7.067764272,7.067764115,52.21278959,52.21278959,52.2127946,trig,R-3,-0.983225272,1.220473764,0.6753,Sn,N,F
mp-726037,Sn1 P1 O3,7.354480958,7.354480958,4.858219902,75.53409497,75.53409497,120.5770805,mono,Cc,-1.925782938,0.310747514,0.5198,Sn,P,O
mp-1079752,Sn1 P1 S3,7.856394745,7.856394745,7.85639476,50.87234041,50.87234041,50.87233574,trig,R-3,-0.361035942,0.045626537,1.0326,Sn,P,S
mp-1080140,Sn1 P1 S3,6.750296,6.762189304,7.201777086,81.07238483,71.88532175,60.05816343,mono,C2/m,-0.361007112,0.045655367,1.0053,Sn,P,S
mp-13923,Sn1 P1 S3,7.57141576,6.596566975,11.85949965,56.10713323,90.0,90.0,mono,Pc,-0.406662479,0.0,2.1301,Sn,P,S
mp-4252,Sn1 P1 S3,7.731397,6.630607,11.4073524,55.94071228,90.0,90.0,mono,P2_1/c,-0.399626297,0.007036182,1.8226,Sn,P,S
mp-570370,Sn1 P1 Se3,7.87900693,6.919610535,12.23592134,55.61381464,90.0,90.0,mono,Pc,-0.288478995,0.002049228,1.4974,Sn,P,Se
mp-5706,Sn1 P1 Se3,7.895084,6.959541,11.99390218,55.65870318,90.0,90.0,mono,P2_1/c,-0.287312422,0.0032158,1.3486,Sn,P,Se
mp-673705,Sn1 P1 Se3,7.729164,7.764427,11.06881933,65.46915073,90.0,90.0,mono,P2_1/c,-0.112380785,0.178147437,0.5105,Sn,P,Se
mp-1101720,Sn1 Pb1 O3,5.838096,8.186615,11.820277,90.0,90.0,90.0,ortho,Pbam,-1.801487067,0.076258078,1.3569,Sn,Pb,O