mp_id,formula,sites,composition,a_edge (angstrom),b_edge (angstrom),c_edge (angstrom),alpha_ang (deg),beta_ang (deg),gamma_ang (deg),crystal_system,space_group,total_magnetisation (bohr),energy_per_atom (eV/atom),formation_energy (eV/atom),energy_above_hull (eV/atom),stable,density (g/cc),band_gap (eV),direct_bandgap,volume (cubic-angstrom),bulk_modulus (GPa),shear_modulus (GPa)
mp-3822,SrCO3,20,Sr1 C1 O3,5.11695695,5.98602397,8.43766419,90,90,90,ortho,Pnma,0,-7.852421028,-2.699425708,0,TRUE,3.794093427,4.4416,FALSE,258.4475691,"{'voigt': 62.295, 'reuss': 58.8, 'vrh': 60.547}","{'voigt': 30.307, 'reuss': 28.368, 'vrh': 29.338}"
mp-978842,SrCaO3,5,Sr1 Ca1 O3,4.376349,4.376349,4.376349,90,90,90,cubic,Pm-3m,1.9999402,-5.886164708,-2.177782511,0.467312726,FALSE,3.480772355,0,FALSE,83.81772037,,
mp-22428,SrCeO3,20,Sr1 Ce1 O3,6.00426811,6.17442523,8.60143538,90,90,90,ortho,Pnma,0,-8.108783838,-3.614131643,0.008514478,FALSE,5.743441229,2.2817,FALSE,318.8801925,"{'voigt': 113.436, 'reuss': 113.104, 'vrh': 113.27}","{'voigt': 51.76, 'reuss': 51.565, 'vrh': 51.662}"
mp-1272815,SrCoO3,20,Sr1 Co1 O3,5.490195545,6.736159543,6.736086111,70.94369734,90.0001565,90.00014446,ortho,Amm2,12.794274,-6.694199544,-1.960253978,0.039565768,FALSE,5.487982865,0,FALSE,235.4673473,,
mp-1273854,SrCoO3,20,Sr1 Co1 O3,3.875452677,3.897168604,15.37347411,89.95853369,90.04075786,89.56967037,tet,P4/mmm,0.0095115,-6.698450142,-1.964504577,0.035315169,FALSE,5.565603438,0,FALSE,232.1834069,,
mp-1283849,SrCoO3,10,Sr1 Co1 O3,3.93834226,5.354912305,5.35492363,90.01243636,90.00001441,90.0000105,tet,P4/mbm,6.1961069,-6.715478788,-1.981533223,0.018286523,FALSE,5.721295147,0,FALSE,112.9325384,,
mp-505766,SrCoO3,10,Sr1 Co1 O3,5.494343434,5.494297472,5.494332827,60.00007663,89.99943222,119.9999957,cubic,Pm-3m,0.0008775,-6.651910965,-1.9179654,0.081854346,FALSE,5.509182074,0,FALSE,117.2806371,,
mp-550781,SrCoO3,20,Sr1 Co1 O3,4.924415325,5.520515308,9.692115946,89.96229321,94.70025655,89.99433842,mono,P2_1/m,2.2862794,-6.646254735,-1.912309171,0.087510576,FALSE,4.921002986,0,FALSE,262.5970297,,
mp-562466,SrCoO3,20,Sr1 Co1 O3,4.928848,5.500237099,9.631704486,89.64130917,84.25562479,89.90167422,tri,P-1,3.9999997,-6.660390813,-1.926445248,0.073374498,FALSE,4.974032203,0,FALSE,259.7974269,,
mp-1325463,SrCrO3,70,Sr1 Cr1 O3,5.553807463,5.553807463,32.278374,90,90,119.9997792,ortho,Cmcm,1.4968986,-7.68359197,-2.445720255,0.198580512,FALSE,5.058458409,0,FALSE,862.2334893,,
mp-1372100,SrCrO3,30,Sr1 Cr1 O3,5.555374678,5.555374678,13.685607,90,90,120.2836708,ortho,Cmcm,9.8501638,-7.713121454,-2.475249739,0.169051028,FALSE,5.124994467,0,FALSE,364.7311738,,
mp-20029,SrCrO3,5,Sr1 Cr1 O3,3.893204,3.893204,3.893204,90,90,90,cubic,Pm-3m,2.0150808,-7.8096274,-2.571755685,0.072545082,FALSE,5.279509213,0,FALSE,59.00943858,,
mp-752441,SrCrO3,30,Sr1 Cr1 O3,5.505115734,5.505115734,13.533804,90,90,119.9999968,hex_,P6_3/mmc,11.999597,-7.796441788,-2.558570073,0.085730694,FALSE,5.262387805,0,FALSE,355.2085701,,
mp-755321,SrCrO3,20,Sr1 Cr1 O3,5.512270994,5.512270994,9.157297,90,90,120.0000119,hex_,P6_3/mmc,8.0002548,-7.785740089,-2.547868374,0.096432393,FALSE,5.171494014,0,FALSE,240.9677929,,
mp-761337,SrCrO3,30,Sr1 Cr1 O3,5.531538,5.552581242,13.68560731,89.99368284,89.98776684,60.19202419,ortho,Ama2,11.9999417,-7.824536523,-2.586664808,0.057635959,FALSE,5.124997658,0.721,FALSE,364.7309467,,
mp-769855,SrCrO3,20,Sr1 Cr1 O3,5.537311429,5.537311429,9.282726,90,90,119.3811736,ortho,Ama2,8.0000583,-7.811952455,-2.57408074,0.070220027,FALSE,5.024541829,0.8294,FALSE,248.0153496,,
mp-781082,SrCrO3,70,Sr1 Cr1 O3,5.543739,5.551915445,32.25815788,90.075781,90.00958596,119.898705,ortho,Ama2,27.9990937,-7.81688384,-2.579012125,0.065288642,FALSE,5.067403039,0.588,FALSE,860.7115343,,
mp-1076711,SrCuO3,5,Sr1 Cu1 O3,3.83837744,3.83846023,3.83836534,90,90,90,cubic,Pm-3m,0.6731339,-5.867270728,-1.740167173,0.008427794,FALSE,5.848026626,0,FALSE,56.55239894,,
mp-1192969,SrCuO3,30,Sr1 Cu1 O3,3.835821727,8.521220225,10.816168,90,90,90.05676492,ortho,Pmma,0.8828539,-5.829770215,-1.70266666,0.045928306,FALSE,5.61278244,0,FALSE,353.535814,,
mp-29049,SrCuO3,15,Sr1 Cu1 O3,3.855893,5.409559,8.552606,90,90,90,ortho,Pmmm,0.9322317,-5.832814253,-1.705710698,0.042884268,FALSE,5.561556162,0,FALSE,178.3960775,,
mp-1187145,SrDyO3,5,Sr1 Dy1 O3,4.372935,4.372935,4.372935,90,90,90,cubic,Pm-3m,1.000689,-7.257123012,-3.026185685,0.25280565,FALSE,5.919956587,0,FALSE,83.62171416,,
mp-1187147,SrErO3,5,Sr1 Er1 O3,4.334821,4.334821,4.334821,90,90,90,cubic,Pm-3m,0.9997273,-7.304388106,-3.083582123,0.222959852,FALSE,6.174505379,0,FALSE,81.45420437,,
mp-1100775,SrEuO3,5,Sr1 Eu1 O3,4.383632,4.383632,4.383632,90,90,90,cubic,Pm-3m,5.0025577,-8.043778978,-2.678894374,0.32016035,FALSE,5.669031021,0,FALSE,84.23687861,,
mp-510624,SrFeO3,5,Sr1 Fe1 O3,3.82881691,3.82881275,3.82881172,90,90,90,cubic,Pm-3m,3.8837813,-7.22424936,-2.222982897,0,TRUE,5.664240347,0,FALSE,56.12970212,,
mp-1080133,SrGa3Pd,10,Sr1 Ga3 Pd1,6.121312696,6.121312696,6.01136307,90,90,116.5573363,ortho,Cmcm,0,-3.805619848,-0.614300255,0,TRUE,6.646193691,0,FALSE,201.4820295,,
mp-1068235,SrGe3Ir,5,Sr1 Ge3 Ir1,5.964663145,5.964663145,5.964663145,135.8896506,135.8896506,64.15098324,tet,I4mm,0,-22.40561651,-0.581427054,0,TRUE,8.150196949,0,FALSE,101.4141068,,
mp-978987,SrGe3Pd,5,Sr1 Ge3 Pd1,6.042452392,6.042452392,6.042452392,136.4648803,136.4648803,63.2624361,tet,I4mm,0,-4.70062116,-0.552342467,0,TRUE,6.620209163,0,FALSE,103.3314291,"{'voigt': 71.0, 'reuss': 70.646, 'vrh': 70.823}","{'voigt': 26.991, 'reuss': 25.689, 'vrh': 26.34}"
mp-1068239,SrGe3Pt,5,Sr1 Ge3 Pt1,5.982998347,5.982998347,5.982998347,135.6832405,135.6832405,64.47043235,tet,I4mm,0,-22.30792609,-0.65806395,0,TRUE,8.064414755,0,FALSE,103.0832038,,
mp-1078860,SrGeAu3,10,Sr1 Ge1 Au3,6.28212474,6.28212474,5.60321956,90,90,90,tet,P4/nmm,2.00E-07,-36.71366129,-0.559157474,0,TRUE,11.28133836,0,FALSE,221.1315712,,
mp-1016999,SrGeO3,5,Sr1 Ge1 O3,3.85681,3.85681,3.85681,90,90,90,cubic,Pm-3m,1.44E-05,-6.824938958,-2.593071166,0.150044169,FALSE,6.027906043,0,FALSE,57.36998463,"{'voigt': 158.897, 'reuss': 158.897, 'vrh': 158.897}","{'voigt': 118.094, 'reuss': 111.974, 'vrh': 115.034}"
mp-17464,SrGeO3,30,Sr1 Ge1 O3,7.260790343,7.260790343,11.2875638,71.65165741,71.65165741,60.11372609,mono,C2/c,0,-6.974983127,-2.743115335,0,TRUE,4.317347515,3.4179,FALSE,480.6018638,,
mp-554869,SrGeO3,60,Sr1 Ge1 O3,8.652139304,9.943575716,11.1675659,73.90493086,89.93632227,77.98048307,tri,P-1,0.3893371,-6.973098389,-2.741230597,0.001884739,FALSE,4.604582877,3.3373,FALSE,901.2435295,,
mp-555731,SrGeO3,15,Sr1 Ge1 O3,7.053510133,7.053510133,5.771364,90,90,120.0000013,hex_,P-62m,0.0001186,-6.862306664,-2.630438872,0.112676463,FALSE,4.172081475,3.0028,TRUE,248.6678741,,
mp-1207079,SrH3Pd,5,Sr1 H3 Pd1,3.82819304,3.82819304,3.82819304,90,90,90,cubic,Pm-3m,2.10E-05,-3.926642214,-0.515080371,0,TRUE,5.832765368,0,FALSE,56.10240616,,
mp-13108,SrHfO3,5,Sr1 Hf1 O3,4.138109,4.138109,4.146736,90,90,90,tet,P4mm,2.30E-06,-9.078168534,-3.779468507,0.032896417,FALSE,7.345445358,3.7305,FALSE,71.00848374,,
mp-13109,SrHfO3,10,Sr1 Hf1 O3,5.768559275,5.760483452,5.760484166,60.3699696,59.95360115,59.9536118,ortho,Imma,0,-9.109144965,-3.810444938,0.001919986,FALSE,7.691217507,3.9893,FALSE,135.6323461,"{'voigt': 158.096, 'reuss': 156.909, 'vrh': 157.502}","{'voigt': 88.246, 'reuss': 85.99, 'vrh': 87.118}"
mp-3378,SrHfO3,20,Sr1 Hf1 O3,5.76053461,5.77701466,8.14070902,90,90,90,ortho,Pnma,0,-9.111064951,-3.812364924,0,TRUE,7.701226052,4.1704,FALSE,270.9121554,"{'voigt': 155.364, 'reuss': 155.334, 'vrh': 155.349}","{'voigt': 92.832, 'reuss': 92.134, 'vrh': 92.483}"
mp-3721,SrHfO3,10,Sr1 Hf1 O3,5.786711248,5.786712432,5.786713303,120.6703923,120.6703877,88.8427716,tet,I4/mcm,0,-9.106974384,-3.808274357,0.004090567,FALSE,7.693023947,4.0578,FALSE,135.6004975,"{'voigt': 155.741, 'reuss': 152.429, 'vrh': 154.085}","{'voigt': 99.139, 'reuss': 96.901, 'vrh': 98.02}"
mp-4551,SrHfO3,5,Sr1 Hf1 O3,4.141206,4.141206,4.141206,90,90,90,cubic,Pm-3m,0,-9.078107392,-3.779407365,0.032957559,FALSE,7.344257033,3.7226,FALSE,71.01997314,"{'voigt': 163.199, 'reuss': 163.199, 'vrh': 163.199}","{'voigt': 102.411, 'reuss': 96.799, 'vrh': 99.605}"
mp-4673,SrHfO3,20,Sr1 Hf1 O3,5.767219101,5.767219101,8.15933204,90,90,90.62594694,ortho,Cmcm,0,-9.107316679,-3.808616652,0.003748272,FALSE,7.68823716,3.9535,FALSE,271.3698479,"{'voigt': 155.402, 'reuss': 154.489, 'vrh': 154.945}","{'voigt': 92.343, 'reuss': 90.104, 'vrh': 91.224}"
mp-550908,SrHfO3,10,Sr1 Hf1 O3,5.73453937,5.73453937,4.13569603,90,90,90,tet,P4/mbm,0,-9.099779001,-3.801078974,0.01128595,FALSE,7.670305801,3.6764,FALSE,136.0021232,"{'voigt': 155.643, 'reuss': 152.617, 'vrh': 154.13}","{'voigt': 100.837, 'reuss': 98.447, 'vrh': 99.642}"
mp-1208643,SrHfS3,20,Sr1 Hf1 S3,6.72976646,7.0820188,9.74143735,90,90,90,ortho,Pnma,0,-18.95437855,-2.073963812,0,TRUE,5.18326372,1.4956,TRUE,464.280144,,
mp-971975,SrHgO3,5,Sr1 Hg1 O3,4.236171,4.236171,4.236171,90,90,90,cubic,Pm-3m,0.0002135,-4.728247862,-1.359051234,0.273016527,FALSE,7.344072416,0,FALSE,76.01870174,"{'voigt': 102.967, 'reuss': 102.967, 'vrh': 102.967}","{'voigt': 48.472, 'reuss': 37.147, 'vrh': 42.81}"
mp-971996,SrHoO3,5,Sr1 Ho1 O3,4.355383,4.355383,4.355383,90,90,90,cubic,Pm-3m,0.9999566,-7.280823688,-3.054025574,0.236222594,FALSE,6.040663396,0,FALSE,82.61883275,"{'voigt': 84.713, 'reuss': 84.713, 'vrh': 84.713}","{'voigt': 50.567, 'reuss': 41.619, 'vrh': 46.093}"
mp-1218236,SrIn3Au,5,Sr1 In3 Au1,7.046929711,7.046929711,7.046929711,141.8993837,141.8993837,54.98038974,tet,I4mm,0,-3.062882236,-0.414115972,0,TRUE,7.895956262,0,FALSE,132.2887823,,
mp-1218256,SrIn3Hg,5,Sr1 In3 Hg1,7.137794481,7.137794481,7.137794481,141.4088979,141.4088979,55.72020475,tet,I4mm,0,-2.3498222,-0.293897929,0.000184897,FALSE,7.481434522,0,FALSE,140.422707,,
mp-972021,SrInO3,5,Sr1 In1 O3,4.214427,4.214427,4.214427,90,90,90,cubic,Pm-3m,0.9651919,-5.974557026,-2.115460056,0.194183901,FALSE,5.555595225,0,FALSE,74.85410239,"{'voigt': 95.953, 'reuss': 95.953, 'vrh': 95.953}","{'voigt': 46.837, 'reuss': 36.314, 'vrh': 41.576}"
mp-1016848,SrIrO3,5,Sr1 Ir1 O3,3.998048,3.998048,3.998048,90,90,90,cubic,Pm-3m,0.0956451,-6.967076222,-1.892127165,0.141754298,FALSE,8.518451757,0,FALSE,63.90634972,"{'voigt': 169.881, 'reuss': 169.881, 'vrh': 169.881}","{'voigt': 40.81, 'reuss': 36.593, 'vrh': 38.702}"
mp-1105160,SrIrO3,20,Sr1 Ir1 O3,5.641677,5.688867,7.943546,90,90,90,ortho,Pnma,2.5083674,-7.081156114,-2.006207057,0.027674406,FALSE,8.541148205,0,FALSE,254.9461239,,
mp-1193907,SrIrO3,30,Sr1 Ir1 O3,5.562151814,5.562057106,14.32050561,88.53209776,88.53074306,119.7141753,mono,C2/c,2.0247608,-7.105362224,-2.030413167,0.003468296,FALSE,8.499852325,0,FALSE,384.27714,,
mp-17097,SrIrO3,30,Sr1 Ir1 O3,5.516079986,5.516079986,14.37888941,90,90,118.5673208,ortho,Cmcm,5.8699255,-7.08952906,-2.014580003,0.01930146,FALSE,8.500577296,0,FALSE,384.244367,,
mp-24419,SrLiH3,5,Sr1 Li1 H3,4.630791,4.630791,4.630791,90,90,90,cubic,Pm-3m,0,-5.706050683,-0.126509746,0.457782857,FALSE,1.631795838,1.8195,FALSE,99.30372545,,
mp-1187183,SrLiO3,5,Sr1 Li1 O3,3.909437,3.909437,3.909437,90,90,90,cubic,Pm-3m,3,-5.383844408,-1.694797614,0.287957961,FALSE,3.961883403,0,FALSE,59.75065312,,
mp-571443,SrMgIn3,5,Sr1 Mg1 In3,4.706405955,4.706406209,7.136325073,109.2536156,109.2536032,89.99999377,tet,I-4m2,7.00E-07,-2.61227041,-0.292186543,0.002842761,FALSE,5.419645813,0,FALSE,139.8311227,"{'voigt': 35.587, 'reuss': 35.399, 'vrh': 35.493}","{'voigt': 22.697, 'reuss': 22.164, 'vrh': 22.431}"
mp-1187182,SrMgO3,5,Sr1 Mg1 O3,4.02557,4.02557,4.02557,90,90,90,cubic,Pm-3m,1.9997583,-5.950681476,-2.317325252,0.220685896,FALSE,4.070787385,0,FALSE,65.23522262,,
mp-1017466,SrMnO3,20,Sr1 Mn1 O3,3.903091002,8.625713699,7.685468004,63.54394851,89.99659718,89.9986426,cubic,Pm-3m,1.22E-05,-7.589702307,-2.450037028,0.049247349,FALSE,5.463879682,0,FALSE,231.649383,,
mp-1193101,SrMnO3,30,Sr1 Mn1 O3,5.421407753,5.421407841,13.37753335,89.99999897,90.0000015,119.9999501,hex_,P6_3/mmc,5.9999986,-7.623904115,-2.484238835,0.015045542,FALSE,5.575611297,0,FALSE,340.5109205,,
mp-1218206,SrMnO3,20,Sr1 Mn1 O3,5.525516671,5.525516671,9.29245,90,90,120.000008,hex_,P6_3mc,11.9985,-7.626330753,-2.486665474,0.012618904,FALSE,5.151404564,0,FALSE,245.7008261,,
mp-19001,SrMnO3,20,Sr1 Mn1 O3,5.452331202,5.452331311,9.09318312,90.00000347,89.99999533,120.0000715,hex_,P6_3/mmc,11.9999998,-7.635886006,-2.496220726,0.003063651,FALSE,5.40656654,0.9027,FALSE,234.1050179,,
mp-559975,SrMnO3,20,Sr1 Mn1 O3,5.533027768,5.533027768,9.289115,90,90,119.7819216,ortho,C222_1,0,-7.638949657,-2.499284377,0,TRUE,5.128040299,0,FALSE,246.8202828,,
mp-1078716,SrMoO3,10,Sr1 Mo1 O3,5.629252606,5.640318013,5.617952133,60.20138919,60.19408403,59.81371416,ortho,Imma,0.2020207,-8.064238283,-2.58784604,0.009092676,FALSE,6.087641875,0,FALSE,126.3252488,,
mp-1187247,SrMoO3,10,Sr1 Mo1 O3,5.738037269,5.738037269,5.738037269,119.5370982,119.5370982,90.80365695,tet,I4/mcm,3.9999994,-8.033093229,-2.556700986,0.04023773,FALSE,5.717186242,0,FALSE,134.5107264,,
mp-1542758,SrMoO3,10,Sr1 Mo1 O3,5.732841561,5.742741993,5.805785386,60.02558061,59.70750324,60.16030212,mono,C2/m,4.0000009,-8.073330959,-2.596938716,0,TRUE,5.69466884,1.3088,FALSE,135.0425979,,
mp-18747,SrMoO3,5,Sr1 Mo1 O3,4.080579,4.080579,4.080579,90,90,90,cubic,Pm-3m,2.0000939,-7.989233434,-2.512841191,0.084097525,FALSE,5.6590547,0,FALSE,67.9462309,,
mp-10339,SrNbO3,20,Sr1 Nb1 O3,5.72665767,5.73016776,8.13508265,90,90,90,ortho,Pnma,0.008971,-8.507971198,-3.180447969,0.007797433,FALSE,5.686060539,0,FALSE,266.9503711,,
mp-1173150,SrNbO3,20,Sr1 Nb1 O3,5.70922761,5.70973949,8.19387064,90,90,90,tet,P4/mbm,9.40E-06,-8.506182059,-3.17865883,0.009586572,FALSE,5.682759201,0,FALSE,267.1054531,,
mp-7006,SrNbO3,5,Sr1 Nb1 O3,4.06969111,4.06969111,4.06968705,90,90,90,cubic,Pm-3m,0.0025986,-8.502292542,-3.174769313,0.013476089,FALSE,5.629866644,0,FALSE,67.40372673,"{'voigt': 173.24, 'reuss': 173.24, 'vrh': 173.24}","{'voigt': 85.554, 'reuss': 73.977, 'vrh': 79.765}"
mp-1101333,SrNdO3,5,Sr1 Nd1 O3,4.496464,4.496464,4.496464,90,90,90,cubic,Pm-3m,0.999959,-7.070098142,-2.809206435,0.358035682,FALSE,5.11183557,0,FALSE,90.91035675,,
mp-1101421,SrNiO3,20,Sr1 Ni1 O3,5.491,5.515727,7.79842,90,90,90,ortho,Pnma,0.0333281,-6.225230546,-1.761940988,0.047980611,FALSE,5.464456699,0,FALSE,236.189631,,
mp-1281591,SrNiO3,20,Sr1 Ni1 O3,3.876155557,8.728576716,7.754378032,116.3640937,89.99240568,90.00969472,ortho,Cmmm,9.00E-07,-6.214385964,-1.751096406,0.058825193,FALSE,5.490513318,0,FALSE,235.0687334,,
mp-1291939,SrNiO3,20,Sr1 Ni1 O3,3.893402664,11.12972517,5.483779774,89.98498803,89.9714725,90.03248363,ortho,Pmma,0.0009314,-6.221136869,-1.757847312,0.052074288,FALSE,5.431430014,0,FALSE,237.6258201,,
mp-1299294,SrNiO3,20,Sr1 Ni1 O3,5.502220224,5.503668578,9.627038609,89.82133471,106.4964771,60.04581282,trig,R-3m,0.003407,-6.219499477,-1.75620992,0.05371168,FALSE,5.411997885,0,FALSE,238.479031,,
mp-752649,SrNiO3,5,Sr1 Ni1 O3,3.853927422,3.853927422,3.839326073,89.99210117,89.99210117,90.22416771,mono,C2,0.0008,-6.203257982,-1.739968425,0.069953175,FALSE,5.65834073,0,FALSE,57.02413804,,
mp-762506,SrNiO3,10,Sr1 Ni1 O3,5.504619191,5.513835293,5.512447132,60.07997227,119.9167875,119.9420211,cubic,Pm-3m,0.0173007,-6.22725944,-1.763969883,0.045951717,FALSE,5.445558235,0,FALSE,118.5046561,,
mp-30805,SrNiSn3,5,Sr1 Ni1 Sn3,4.744507337,4.744506944,6.40833773,111.7268593,111.7268626,90.00001473,tet,I4mm,0,-4.335368846,-0.435112779,0,TRUE,6.788303555,0,FALSE,122.9065388,"{'voigt': 51.336, 'reuss': 50.987, 'vrh': 51.162}","{'voigt': 25.039, 'reuss': 24.737, 'vrh': 24.888}"
mp-1105153,SrOsO3,20,Sr1 Os1 O3,5.585676,5.651719,7.970104,90,90,90,ortho,Pnma,4.2483181,-7.654940057,-2.10220435,0.061077385,FALSE,8.602092834,0,FALSE,251.6055924,,
mp-867195,SrOsO3,5,Sr1 Os1 O3,3.992358,3.992358,3.992358,90,90,90,cubic,Pm-3m,1.0549489,-7.619098774,-2.066363067,0.096918668,FALSE,8.503074602,0,FALSE,63.63388436,"{'voigt': 185.233, 'reuss': 185.233, 'vrh': 185.233}","{'voigt': 62.604, 'reuss': 59.281, 'vrh': 60.942}"
mp-9788,SrPS3,20,Sr1 P1 S3,6.730717369,7.62497267,9.452381469,90,91.67487174,90,mono,P2_1/c,0,-10.9590146,-1.308467669,0,TRUE,2.942153579,3.1224,TRUE,484.9034842,,
mp-7198,SrPSe3,20,Sr1 P1 Se3,7.06898753,7.86156988,9.87071049,90,91.60285197,90,mono,P2_1/c,0,-14.54462206,-1.128138446,0,TRUE,4.305976869,2.1432,TRUE,548.3337109,,
mp-20489,SrPbO3,20,Sr1 Pb1 O3,5.88572476,6.02726206,8.3694263,90,90,90,ortho,Pnma,0,-6.20534223,-2.155550595,0,TRUE,7.669326838,0.7941,FALSE,296.9037705,"{'voigt': 105.447, 'reuss': 105.305, 'vrh': 105.376}","{'voigt': 50.587, 'reuss': 49.9, 'vrh': 50.244}"
mp-1187190,SrPdO3,5,Sr1 Pd1 O3,4.039472,4.039472,4.039472,90,90,90,cubic,Pm-3m,0.5146607,-6.020320384,-1.677081801,0.07012186,FALSE,6.097603849,0,FALSE,65.91341396,,
mp-20464,SrPrO3,20,Sr1 Pr1 O3,6.179822,6.393694,8.887466,90,90,90,ortho,Pnma,3.999996,-7.262379621,-2.996023108,0.145080522,FALSE,5.230450051,0,FALSE,351.1605865,,
mp-1187202,SrPtO3,5,Sr1 Pt1 O3,4.06243,4.06243,4.06243,90,90,90,cubic,Pm-3m,0.0006944,-6.221772342,-1.700283457,0.15976487,FALSE,8.190841263,0,FALSE,67.04365338,,
mp-1207172,SrPuO3,5,Sr1 Pu1 O3,4.36308,4.36308,4.36308,90,90,90,cubic,Pm-3m,3.9998094,-9.490294574,-3.235445857,0.090643798,FALSE,7.589559929,0,FALSE,83.05762882,,
mp-989623,SrReN3,20,Sr1 Re1 N3,7.578341342,7.578341342,6.188359917,78.22025713,78.22025713,86.9870866,mono,C2/c,0,-8.557245887,-0.72617078,0,TRUE,6.159965565,1.9969,FALSE,340.5710263,,
mp-1187226,SrReO3,5,Sr1 Re1 O3,3.996911,3.996911,3.996911,90,90,90,cubic,Pm-3m,0.0008968,-8.19681131,-2.399926248,0.126408217,FALSE,8.369426731,0,FALSE,63.85184247,,
mp-1017441,SrRhO3,5,Sr1 Rh1 O3,4.004484,4.004484,4.004484,90,90,90,cubic,Pm-3m,1.4077495,-6.709019372,-1.928895577,0.092648192,FALSE,6.167951452,0,FALSE,64.21547337,,
mp-1206840,SrRhO3,10,Sr1 Rh1 O3,5.663340409,5.663340409,5.663340409,120.9438543,120.9438543,88.37282562,tet,I4/mcm,2.00204,-6.771267952,-1.991144157,0.030399612,FALSE,6.259477489,0,FALSE,126.5530303,,
mp-1206846,SrRhO3,10,Sr1 Rh1 O3,5.558798513,5.558798513,5.558798513,120.6100325,119.0902926,90.26473851,ortho,Imma,1.9982608,-6.78409905,-2.003975255,0.017568514,FALSE,6.508791103,0,FALSE,121.7055259,,
mp-1208626,SrRhO3,20,Sr1 Rh1 O3,5.56299551,5.57434186,7.85386216,90.00008343,89.99901072,89.99939644,ortho,Pnma,3.9888011,-6.79585715,-2.015733355,0.005810414,FALSE,6.505115961,0,FALSE,243.5485698,,
mp-1079352,SrRuO3,10,Sr1 Ru1 O3,5.36079374,5.36079374,7.473878,90,90,144.5591948,ortho,Cmcm,2.004342,-7.309746427,-2.147603698,0.043007939,FALSE,6.31142157,0,FALSE,124.5456347,,
mp-1179112,SrRuO3,20,Sr1 Ru1 O3,5.199519,5.210166,14.282888,90,90,90,ortho,Pnma,1.2542997,-6.856120051,-1.693977322,0.496634316,FALSE,4.063075898,0,FALSE,386.9285365,,
mp-1192792,SrRuO3,20,Sr1 Ru1 O3,13.159769,13.167603,17.98677,90,90,90,ortho,Pnma,32,-3.192481214,1.969661516,4.160273153,FALSE,0.504402841,0.0072,FALSE,3116.794519,,
mp-22390,SrRuO3,20,Sr1 Ru1 O3,5.5432724,5.57521296,7.87656975,90,90,90,ortho,Pnma,8.0012349,-7.352754366,-2.190611637,0,TRUE,6.458339792,0,FALSE,243.4247905,"{'voigt': 166.375, 'reuss': 165.955, 'vrh': 166.165}","{'voigt': 72.529, 'reuss': 70.009, 'vrh': 71.269}"
mp-22534,SrRuO3,5,Sr1 Ru1 O3,3.667213,3.667213,6.633684,90,90,90,tet,P4/mmm,0.0062084,-6.84201519,-1.679872461,0.510739176,FALSE,4.405534977,0,FALSE,89.21277547,,
mp-34212,SrRuO3,10,Sr1 Ru1 O3,5.554798292,5.554798292,5.554798292,120.2984635,119.1626196,90.4701446,ortho,Imma,3.9994139,-7.349090623,-2.186947894,0.003663743,FALSE,6.460546059,0,FALSE,121.6708306,,
mp-4346,SrRuO3,5,Sr1 Ru1 O3,3.987275,3.987275,3.987275,90,90,90,cubic,Pm-3m,2.0018387,-7.311415368,-2.149272639,0.041338998,FALSE,6.200077743,0,FALSE,63.39114105,,
mp-4525,SrRuO3,10,Sr1 Ru1 O3,5.585515931,5.585515931,5.585515931,120.7861337,120.7861337,88.64368554,tet,I4/mcm,4.0143909,-7.346132181,-2.183989452,0.006622185,FALSE,6.45809126,0,FALSE,121.7170792,,