mp_id,composition,a_edge (angstrom),b_edge (angstrom),c_edge (angstrom),alpha_ang (deg),beta_ang (deg),gamma_ang (deg),crystal_system,space_group,formation_energy (eV/atom),energy_above_hull (eV/atom),band_gap (eV),A_site,B_site,X_site
mp-561216,Cu1 Ge1 O3,7.738221038,7.738221038,8.71447,90.0,90.0,100.6486775,ortho,Cmce,-1.602368533,0.068742842,0.0,Cu,Ge,O
mp-1184044,Cu1 Hg1 O3,3.83172,3.83172,3.83172,90.0,90.0,90.0,cubic,Pm-3m,-0.34744816,0.332513583,0.0,Cu,Hg,O
mp-1105578,Cu1 N1 Cl3,14.021445,4.253974,9.565677962,75.12722352,90.0,90.0,mono,P2_1/c,0.568228503,0.97024402,0.2599,Cu,N,Cl
mp-1080799,Cu1 N1 F3,3.887755,3.887755,3.887755,90.0,90.0,90.0,cubic,Pm-3m,-0.247704758,0.940227257,0.0,Cu,N,F
mp-1017556,Cu1 Ni3 N1,3.70207231,3.70208553,3.70222455,90.0,90.0,90.0,cubic,Pm-3m,-0.027755304,0.0,0.0,Cu,N,Ni
mp-766856,Cu1 P1 O3,4.734167,10.856542,12.18082849,59.5700908,90.0,90.0,mono,P2_1/c,-1.903254882,0.106027886,0.946,Cu,P,O
mp-772192,Cu1 P1 O3,5.571966,7.610752,14.08549922,61.95793167,90.0,90.0,mono,P2_1/c,-1.920938613,0.088344155,1.7481,Cu,P,O
mp-772255,Cu1 P1 O3,9.703327465,9.703327465,9.703328055,114.8962175,114.8962175,114.8962128,trig,R-3,-1.981301635,0.027981133,2.0492,Cu,P,O
mp-1105187,Cu1 P1 S3,5.31083413,5.31083413,14.90440863,90.0,90.0,90.0,tet,P4_2/mnm,-0.300671766,0.0,1.1555,Cu,P,S
mp-1096790,Cu1 Pb1 Br3,7.998025077,7.998025077,7.998025077,119.3989145,119.3989145,91.04430225,tet,I4/mcm,-0.517276709,0.465794449,0.0,Cu,Pb,Br
mp-1184117,Cu1 Pb1 O3,3.873189,3.873189,3.873189,90.0,90.0,90.0,cubic,Pm-3m,-0.917831335,0.250703104,0.0,Cu,Pb,O
mp-1184073,Cu1 Pd1 O3,3.793113,3.793113,3.793113,90.0,90.0,90.0,cubic,Pm-3m,-0.094658999,0.718975019,0.0,Cu,Pd,O
mp-28741,Cu1 Se3 Br1,4.80714032,7.58594412,14.37169294,90.0,90.0,90.0,ortho,Pmna,-0.535836473,0.0,1.0299,Cu,Br,Se
mp-29450,Cu1 Se3 I1,9.6005471,9.6005471,9.600547156,95.28363138,95.28363138,95.28363112,trig,R-3m,-0.168803863,0.125586228,1.2273,Cu,I,Se
mp-22414,Cu1 Se1 O3,5.476776,6.151551,7.306758,90.0,90.0,90.0,ortho,Pnma,-1.066740096,0.028767922,0.0,Cu,Se,O
mp-22688,Cu1 Se1 O3,5.94944534,6.99177858,12.25358662,90.0,90.0,90.0,ortho,Pbca,-1.082810892,0.012697127,0.2102,Cu,Se,O
mp-554440,Cu1 Se1 O3,8.27492805,7.7047169,10.61491645,52.53399415,90.0,90.0,mono,P2_1/c,-1.084237615,0.011270403,0.0215,Cu,Se,O
mp-560049,Cu1 Se1 O3,4.731052859,8.673454122,10.57942599,113.0444262,91.7488845,88.98153431,tri,P-1,-1.093140096,0.002367922,0.0,Cu,Se,O
mp-16053,Cu1 Si1 O3,2.860253,4.918236,8.958139,90.0,90.0,90.0,ortho,Pmma,-2.249616019,0.091200764,0.112,Cu,Si,O
mp-556982,Cu1 Si1 O3,8.83105112,8.83541179,8.831557919,111.6876645,111.8559547,111.627429,trig,R-3,-2.272638925,0.068177859,0.0,Cu,Si,O
mp-20977,Cu1 Te1 O3,5.821665,6.069741,7.200504,90.0,90.0,90.0,ortho,Pnma,-1.214753712,0.059400267,0.0,Cu,Te,O
mp-4320,Cu1 Te1 O3,6.016914,7.677819,12.882924,90.0,90.0,90.0,ortho,Pnma,-1.229309977,0.044844003,0.0016,Cu,Te,O
mp-558696,Cu1 Te1 O3,9.356216,5.290517,7.569102905,51.93507318,90.0,90.0,mono,P2_1/c,-1.238739726,0.035414253,0.0019,Cu,Te,O
mp-29676,Dy3 Al1 C1,4.8703325,4.8703325,4.8703325,90.0,90.0,90.0,cubic,Pm-3m,-0.37534835,0.0,0.0,Al,C,Dy
mp-1017557,Dy3 Al1 N1,4.75093043,4.75093043,4.75093043,90.0,90.0,90.0,cubic,Pm-3m,-1.087709249,0.0,0.0,Al,N,Dy
mp-20922,Dy3 Ga1 C1,5.300761,5.300761,5.300761,90.0,90.0,90.0,cubic,Pm-3m,1.19569975,1.606714689,0.0,Ga,C,Dy
mp-19881,Dy3 In1 C1,4.9031569,4.9031569,4.9031569,90.0,90.0,90.0,cubic,Pm-3m,-0.485435924,0.0,0.0,In,C,Dy
mp-31056,Dy3 In1 N1,4.79206634,4.79206634,4.79206634,90.0,90.0,90.0,cubic,Pm-3m,-1.203262677,0.0,0.0,In,N,Dy
mp-19818,Dy3 Pb1 C1,4.89301389,4.89301389,4.89301492,90.0,90.0,90.0,cubic,Pm-3m,-0.53177675,0.0,0.0,Pb,C,Dy
mp-19899,Dy3 Sn1 C1,4.87069979,4.87069979,4.87069979,90.0,90.0,90.0,cubic,Pm-3m,-0.620578535,0.0,0.0,Sn,C,Dy
mp-22513,Dy3 Tl1 C1,5.613253,5.613253,5.613253,90.0,90.0,90.0,cubic,Pm-3m,1.626044915,1.916393434,0.0,Tl,C,Dy
mp-754936,Dy1 Al1 O3,5.237056292,5.237056292,5.237056611,60.91956114,60.91956114,60.91956644,trig,R-3c,-3.717985083,0.040794405,5.166,Dy,Al,O
mp-756630,Dy1 Al1 O3,5.16840341,5.31063225,7.37199326,90.0,90.0,90.0,ortho,Pnma,-3.745956005,0.012823483,5.723,Dy,Al,O
mp-984723,Dy1 Al1 O3,3.711247,3.711247,3.711247,90.0,90.0,90.0,cubic,Pm-3m,-3.617029635,0.141749853,2.9483,Dy,Al,O
mp-1206856,Dy1 B3 Mo1,3.15925114,5.430907745,6.840336519,77.83532261,90.0,90.0,mono,P2_1/m,-0.664542838,0.0,0.0,Dy,Mo,B
mp-10792,Dy1 B1 O3,7.155247078,8.944948492,9.775783951,81.33689321,85.63635558,77.3015009,tri,P-1,-3.495605684,0.028402723,5.0542,Dy,B,O
mp-12315,Dy1 B1 O3,6.106156805,6.356277026,6.352441828,92.32161557,108.4751828,107.811875,tri,P-1,-3.524008407,0.0,5.3594,Dy,B,O
mp-753318,Dy1 B1 O3,3.956124733,3.956124733,8.671067,90.0,90.0,117.3527522,ortho,Ama2,-3.464002388,0.060006018,4.514,Dy,B,O
mp-10060,Dy1 B1 Pd3,4.319571,4.319571,4.319571,90.0,90.0,90.0,cubic,Pm-3m,-0.660132186,0.11293425,0.0,Dy,B,Pd
mp-3183,Dy1 B1 Rh3,4.17299336,4.17299336,4.17299336,90.0,90.0,90.0,cubic,Pm-3m,-0.79370189,0.0,0.0,Dy,B,Rh
mp-1207000,Dy1 Bi1 O3,4.422165,4.422165,4.422165,90.0,90.0,90.0,cubic,Pm-3m,-1.684665227,1.13872127,0.0,Dy,Bi,O
mp-22137,Dy1 Co1 O3,5.12056865,5.41427635,7.3530512,90.0,90.0,90.0,ortho,Pnma,-2.608191084,0.009307952,1.1924,Dy,Co,O
mp-19381,Dy1 Cr1 O3,5.23463434,5.53590021,7.54140459,90.0,90.0,90.0,ortho,Pnma,-3.220740385,0.0,2.4922,Dy,Cr,O
mp-1225651,Dy1 Cr1 S3,3.70122,12.991488,16.20422,90.0,90.0,90.0,ortho,Pnnm,-1.566452214,0.115568589,0.2275,Dy,Cr,S
mp-1212865,Dy1 Cr1 Sb3,6.035755,6.202342,12.765264,90.0,90.0,90.0,ortho,Pbcm,-0.525300616,0.019761747,0.0,Dy,Cr,Sb
mp-1212890,Dy1 Cr1 Se3,3.890608,8.230338,13.270285,90.0,90.0,90.0,ortho,Pnma,-1.436858844,0.037519855,0.1166,Dy,Cr,Se
mp-1183771,Dy1 Cu1 O3,3.775498,3.775498,3.775498,90.0,90.0,90.0,cubic,Pm-3m,-2.232829211,0.225766218,0.0,Dy,Cu,O
mp-772188,Dy1 Er1 O3,6.411861673,6.411861673,12.700567,90.0,90.0,119.9999966,hex_,P6_3cm,-3.946876732,0.084193207,3.0953,Dy,Er,O
mp-22283,Dy1 Fe1 O3,5.27661581,5.6138646,7.62092487,90.0,90.0,90.0,ortho,Pnma,-2.849742895,0.006325671,0.9134,Dy,Fe,O
mp-1225592,Dy1 Ga3 Cu1,6.041687863,6.041687863,6.041687863,140.9396304,140.9396304,56.42934405,tet,I-4m2,-0.532060131,0.0,0.0,Dy,Cu,Ga
mp-1105019,Dy1 Ga3 Ru1,6.37718383,6.37718383,6.37718383,90.0,90.0,90.0,cubic,Pm-3m,-0.585152127,0.0,0.0,Dy,Ru,Ga
mp-755612,Dy1 Ga1 O3,5.307153,5.597165,7.63874,90.0,90.0,90.0,ortho,Pnma,-3.131620863,0.048170023,3.6351,Dy,Ga,O
mp-769015,Dy1 Ga1 O3,6.12098791,6.12098791,11.7204,90.0,90.0,119.999999,hex_,P6_3cm,-3.154929571,0.024861315,2.8765,Dy,Ga,O
mp-1225852,Dy1 Ga1 Se3,3.934719,7.923808,16.254568,90.0,90.0,90.0,ortho,Pnma,-1.214921918,0.216811333,0.0191,Dy,Ga,Se
mp-768145,Dy1 Ho1 O3,6.42343981,6.42343981,12.747755,90.0,90.0,119.999998,hex_,P6_3cm,-3.926198936,0.090103677,3.0556,Dy,Ho,O
mp-1178360,Dy1 In1 O3,5.521777,5.866607,8.191486,90.0,90.0,90.0,ortho,Pnma,-2.935523677,0.064032907,2.623,Dy,In,O
mp-1183823,Dy1 In1 O3,4.121735,4.121735,4.121735,90.0,90.0,90.0,cubic,Pm-3m,-2.300793391,0.698763193,1.5367,Dy,In,O
mp-768149,Dy1 In1 O3,6.28807684,6.288076821,12.27113037,89.99999556,90.00000379,120.0001173,hex_,P6_3cm,-2.995234781,0.004321803,1.9871,Dy,In,O
mp-756469,Dy1 Lu1 O3,5.61251,5.876143,8.23375,90.0,90.0,90.0,ortho,Pnma,-3.989102143,0.075312533,4.967,Dy,Lu,O
mp-1232163,Dy1 Mg1 S3,6.91811103,6.91811103,6.765345977,73.49576855,73.49576855,111.5397522,mono,C2/m,-1.547089628,0.31352235,0.2099,Dy,Mg,S
mp-1232195,Dy1 Mg1 S3,6.67677,6.676770489,18.130227,90.0,90.0,119.9999976,trig,R-3,-1.626365968,0.23424601,0.0,Dy,Mg,S
mp-1232192,Dy1 Mg1 Se3,7.292361964,12.93289,7.49556724,90.0,123.7666401,90.0,mono,C2/m,-1.37720259,0.343004321,0.0,Dy,Mg,Se
mp-1232257,Dy1 Mg1 Se3,6.908529,6.908529082,19.341285,90.0,90.0,119.9999948,trig,R-3,-1.49724873,0.22295818,0.0,Dy,Mg,Se
mp-1238023,Dy1 Mg1 Se3,7.288848066,7.288848066,6.740159699,73.20993485,73.20993485,110.8531222,mono,C2/m,-1.424338084,0.295868827,0.0,Dy,Mg,Se
mp-1188804,Dy1 Mn1 O3,3.400136,6.008605,12.99438,90.0,90.0,90.0,ortho,Pnma,-2.733653967,0.323793291,1.0173,Dy,Mn,O
mp-22103,Dy1 Mn1 O3,5.330322,5.867879,7.499174,90.0,90.0,90.0,ortho,Pnma,-3.035144687,0.022302571,0.4134,Dy,Mn,O
mp-542479,Dy1 Mn1 O3,6.136044374,6.136044411,11.42852703,89.99999992,90.0000001,119.9995203,hex_,P6_3cm,-3.057447259,0.0,0.0,Dy,Mn,O
mp-1087478,Dy1 Ni1 Ge3,10.9250475,10.9250475,4.07458642,90.0,90.0,158.5920398,ortho,Cmmm,-0.572347459,0.0,0.0,Dy,Ni,Ge
mp-19265,Dy1 Ni1 O3,5.153995031,5.49893767,7.390526828,89.99977502,89.99809542,90.00004845,ortho,Pnma,-2.501074799,0.0,0.0,Dy,Ni,O
mp-1183790,Dy1 Pa1 O3,4.308022,4.308022,4.308022,90.0,90.0,90.0,cubic,Pm-3m,-2.821412929,0.991303253,0.0,Dy,Pa,O
mp-15856,Dy1 Rh3 C1,4.14780277,4.14780277,4.14780277,90.0,90.0,90.0,cubic,Pm-3m,-0.50297715,0.0,0.0,Dy,C,Rh
mp-1183821,Dy1 Rh1 O3,3.940347,3.940347,3.940347,90.0,90.0,90.0,cubic,Pm-3m,-2.012122925,0.569480333,0.0,Dy,Rh,O
mp-1212884,Dy1 Rh1 O3,5.21847713,5.75597356,7.573281,90.0,90.0,90.0,ortho,Pnma,-2.581603258,0.0,0.8883,Dy,Rh,O
mp-1206121,Dy1 Ru3 C1,4.13466309,4.13466309,4.13466309,90.0,90.0,90.0,cubic,Pm-3m,-0.212735682,0.0,0.0,Dy,C,Ru
mp-1207184,Dy1 Sb1 O3,4.248024,4.248024,4.248024,90.0,90.0,90.0,cubic,Pm-3m,-1.893523079,1.039270389,0.0,Dy,Sb,O
mp-1225550,Dy1 Sb1 Te3,10.76923483,10.76923483,10.76923489,23.33707589,23.33707589,23.33707612,trig,R3m,-0.990671362,0.029413949,0.8479,Dy,Sb,Te
mp-31120,Dy1 Sc1 O3,5.45367,5.747842,7.988247,90.0,90.0,90.0,ortho,Pnma,-3.961055701,0.025833509,4.4598,Dy,Sc,O
mp-1184176,Dy1 Sc1 S3,6.37621861,7.00288526,9.52664085,90.0,90.0,90.0,ortho,Pnma,-2.275721434,0.0,1.7737,Dy,Sc,S
mp-769393,Dy1 Se1 O3,12.22147792,5.931740473,8.88506698,73.80175795,89.99950874,89.9991949,mono,P2_1/c,-2.525142906,0.0,1.8154,Dy,Se,O
mp-1070146,Dy1 Si3 Ir1,5.708651666,5.708651666,5.708651666,137.1650738,137.1650738,62.18416398,tet,I4mm,-0.782220894,0.0,0.0,Dy,Ir,Si
mp-1184153,Dy1 Sn1 O3,4.138491,4.138491,4.138491,90.0,90.0,90.0,cubic,Pm-3m,-2.149717456,0.848425574,0.0,Dy,Sn,O
mp-779599,Dy1 Ti1 O3,5.3356,5.716985,7.692903,90.0,90.0,90.0,ortho,Pnma,-3.632248171,0.057282459,0.0,Dy,Ti,O
mp-752435,Dy1 Tm1 O3,5.637906,5.907363,8.328938,90.0,90.0,90.0,ortho,Pnma,-3.959497252,0.08806209,4.8481,Dy,Tm,O
mp-22789,Dy1 V1 O3,5.25263721,5.66556438,7.54368515,90.0,90.0,90.0,ortho,Pnma,-3.296628931,0.0,1.6568,Dy,V,O
mp-1181506,Dy1 V1 Sb3,6.182767891,6.151420121,12.7536331,90.00015439,89.99970565,89.99836354,ortho,Pbcm,-0.623902169,0.0,0.0,Dy,V,Sb
mp-768333,Dy1 Y1 O3,6.445616694,6.445616694,12.800039,90.0,90.0,120.0000071,hex_,P6_3cm,-3.882854417,0.096604435,3.0318,Dy,Y,O
mp-10038,Er3 Al1 C1,5.303405,5.303405,5.303405,90.0,90.0,90.0,cubic,Pm-3m,1.445268623,1.87665023,0.0,Al,C,Er
mp-568021,Er3 Al1 C1,4.80526343,4.80526343,4.80526343,90.0,90.0,90.0,cubic,Pm-3m,-0.431381607,0.0,0.0,Al,C,Er
mp-1017558,Er3 Al1 N1,4.68650677,4.68650677,4.68650677,90.0,90.0,90.0,cubic,Pm-3m,-1.104468588,0.0,0.0,Al,N,Er
mp-10274,Er3 Ga1 C1,5.253141,5.253141,5.253141,90.0,90.0,90.0,cubic,Pm-3m,1.186593145,1.629007376,0.0,Ga,C,Er
mp-10275,Er3 In1 C1,5.533707,5.533707,5.533707,90.0,90.0,90.0,cubic,Pm-3m,1.609746095,1.96854864,0.0,In,C,Er
mp-31058,Er3 In1 N1,4.73048637,4.73048637,4.73048637,90.0,90.0,90.0,cubic,Pm-3m,-1.209328626,0.0,0.0,In,N,Er
mp-20430,Er3 Pb1 C1,5.625335,5.625335,5.625335,90.0,90.0,90.0,cubic,Pm-3m,1.655012027,2.082803886,0.0,Pb,C,Er
mp-22537,Er3 Sn1 C1,5.552727,5.552727,5.552727,90.0,90.0,90.0,cubic,Pm-3m,1.48671467,2.018977587,0.0,Sn,C,Er
mp-21028,Er3 Tl1 C1,5.566596,5.566596,5.566596,90.0,90.0,90.0,cubic,Pm-3m,1.629772084,1.942665544,0.0,Tl,C,Er
mp-1184150,Er1 Al1 O3,3.69546,3.69546,3.69546,90.0,90.0,90.0,cubic,Pm-3m,-3.595122191,0.186070174,3.0097,Er,Al,O
mp-754184,Er1 Al1 O3,3.445752202,3.445752202,11.449682,90.0,90.0,120.0000039,hex_,P6_3/mmc,-3.695549608,0.085642757,3.5604,Er,Al,O
mp-756458,Er1 Al1 O3,5.11890551,5.31641715,7.32664956,90.0,90.0,90.0,ortho,Pnma,-3.76336032,0.017832045,6.0359,Er,Al,O
mp-5426,Er1 B3 Mo1,3.14853331,5.396441535,6.795746495,101.795798,90.0,90.0,mono,P2_1/m,-0.639890588,0.0,0.0,Er,Mo,B
mp-10791,Er1 B1 O3,7.182487,8.983940598,9.838167388,81.33542328,85.65877983,77.35866253,tri,P-1,-3.505053416,0.062195207,5.1618,Er,B,O
mp-1194043,Er1 B1 O3,6.471126237,6.471126237,9.485993881,70.42592957,70.42592957,60.08046882,mono,C2/c,-3.567248623,0.0,5.6534,Er,B,O
mp-760405,Er1 B1 O3,3.915666903,3.915666903,8.606045,90.0,90.0,117.3416567,ortho,Ama2,-3.474075992,0.093172631,4.563,Er,B,O
mp-10061,Er1 B1 Pd3,4.304722,4.304722,4.304722,90.0,90.0,90.0,cubic,Pm-3m,-0.667244015,0.114762246,0.0,Er,B,Pd
mp-3769,Er1 B1 Rh3,4.15895118,4.15895118,4.15895118,90.0,90.0,90.0,cubic,Pm-3m,-0.814296076,0.0,0.0,Er,B,Rh
mp-1184148,Er1 Be1 O3,3.52044117,3.52044117,3.52044117,90.0,90.0,90.0,cubic,Pm-3m,-2.887666328,0.382023041,0.0,Er,Be,O
mp-754636,Er1 Bi1 O3,6.115481636,6.115481636,6.115481542,58.60150668,58.60150668,58.60151704,trig,R-3,-2.797893476,0.05151718,2.47,Er,Bi,O
mp-754943,Er1 Bi1 O3,6.136270504,6.136270504,6.13627022,58.520316,58.520316,58.52031053,trig,R3c,-2.818545104,0.030865552,3.1136,Er,Bi,O
mp-562779,Er1 Co1 O3,5.08216856,5.42485142,7.3068925,90.0,90.0,90.0,ortho,Pnma,-2.653127237,0.0,1.4471,Er,Co,O
mp-1205515,Er1 Co1 Si3,10.70105606,10.70105606,3.939435,90.0,90.0,158.8887685,ortho,Cmmm,-0.596648715,0.013481437,0.0,Er,Co,Si
mp-19063,Er1 Cr1 O3,5.18848926,5.52090784,7.50302878,90.0,90.0,90.0,ortho,Pnma,-3.236585073,0.0,0.2571,Er,Cr,O
mp-1184157,Er1 Cu1 O3,3.765783,3.765783,3.765783,90.0,90.0,90.0,cubic,Pm-3m,-2.203922849,0.2747732,0.0,Er,Cu,O
mp-19935,Er1 Fe1 O3,5.23478674,5.58551303,7.59284986,90.0,90.0,90.0,ortho,Pnma,-2.864138105,0.01795462,1.5703,Er,Fe,O
mp-1213036,Er1 Ga3 Os1,6.35239464,6.35239464,6.35239464,90.0,90.0,90.0,cubic,Pm-3m,-0.485417608,0.0,0.0,Er,Os,Ga
mp-1103943,Er1 Ga3 Ru1,6.34642962,6.34642962,6.34642962,90.0,90.0,90.0,cubic,Pm-3m,-0.584037855,0.0,0.0,Er,Ru,Ga
mp-1184164,Er1 Ga1 O3,3.78183872,3.78183872,3.78183872,90.0,90.0,90.0,cubic,Pm-3m,-2.815616718,0.382683968,2.9153,Er,Ga,O
mp-1213082,Er1 Ga1 O3,5.269754,5.574949,7.612088,90.0,90.0,90.0,ortho,Pnma,-3.147625801,0.050674886,3.6631,Er,Ga,O
mp-1213088,Er1 Ga1 O3,5.98487367,5.984869476,11.60914576,90.0000188,89.99998474,119.9999531,hex_,P6_3cm,-3.184789955,0.013510732,2.9001,Er,Ga,O
mp-754208,Er1 In1 O3,5.521226,5.840363,8.176804,90.0,90.0,90.0,ortho,Pnma,-2.945816249,0.079764493,2.8823,Er,In,O
mp-772217,Er1 In1 O3,6.238329888,6.23832799,12.21741889,90.00000063,89.99999774,120.0000882,hex_,P6_3cm,-3.010210249,0.015370493,1.9651,Er,In,O
mp-1184162,Er1 Ir1 O3,3.962793,3.962793,3.962793,90.0,90.0,90.0,cubic,Pm-3m,-1.769272293,0.826676534,0.0,Er,Ir,O
mp-778151,Er1 Lu1 O3,5.582688,5.843866,8.226505,90.0,90.0,90.0,ortho,Pnma,-3.999055284,0.09138355,4.525,Er,Lu,O
mp-1232164,Er1 Mg1 S3,6.962137286,6.962137286,6.650083263,76.93160931,76.93160931,119.2804662,mono,C2/m,-1.509997984,0.371650319,0.0,Er,Mg,S
mp-1232145,Er1 Mg1 Se3,7.366527542,7.366527542,6.928445084,76.64564285,76.64564285,120.3776515,mono,C2/m,-1.384376519,0.329355584,0.0,Er,Mg,Se
mp-1232210,Er1 Mg1 Se3,6.873524,6.873523656,19.189641,90.0,90.0,120.0000017,trig,R-3,-1.499178232,0.214553872,0.0,Er,Mg,Se
mp-19217,Er1 Mn1 O3,6.079453238,6.079430599,11.38085613,90.00000082,89.99999731,119.9996731,hex_,P6_3cm,-3.082495226,0.0,0.0,Er,Mn,O
mp-19319,Er1 Mn1 O3,5.198735051,5.754135201,7.32288723,89.99999594,90.00008523,90.002586,ortho,Pnma,-3.048090046,0.034405181,1.0455,Er,Mn,O
mp-1078854,Er1 Ni1 Ge3,10.97493954,10.97493954,4.070911,90.0,90.0,158.506398,ortho,Cmmm,-0.552305289,0.000829704,0.0,Er,Ni,Ge
mp-1189736,Er1 Ni1 O3,5.559041,5.181402,9.058277002,55.06460695,90.0,90.0,mono,P2_1/c,-2.515981153,0.001576707,0.3404,Er,Ni,O
mp-18983,Er1 Ni1 O3,5.10714498,5.49542731,7.3320099,90.0,90.0,90.0,ortho,Pnma,-2.51755786,0.0,0.0,Er,Ni,O
mp-568727,Er1 Rh3 C1,4.13379555,4.13379555,4.13379555,90.0,90.0,90.0,cubic,Pm-3m,-0.527655274,0.0,0.0,Er,C,Rh
mp-1213022,Er1 Rh1 O3,5.18710261,5.72004523,7.53016477,90.0,90.0,90.0,ortho,Pnma,-2.59661873,0.0,0.9642,Er,Rh,O
mp-1206911,Er1 Ru3 C1,4.12095413,4.12095413,4.12095413,90.0,90.0,90.0,cubic,Pm-3m,-0.245607338,0.0,0.0,Er,C,Ru
mp-1212985,Er1 Sc1 O3,5.420689,5.720861,7.943644,90.0,90.0,90.0,ortho,Pnma,-3.972024329,0.040889039,4.4171,Er,Sc,O
mp-1190244,Er1 Sc1 S3,6.353452,6.970915,9.539495,90.0,90.0,90.0,ortho,Pna2_1,-2.251075411,0.017259183,1.7555,Er,Sc,S
mp-12386,Er1 Si3 Ni1,3.892546996,3.92260637,10.60764251,90.0,100.5724412,90.0,ortho,Cmmm,-0.639258158,0.02033115,0.0,Er,Ni,Si
mp-1225459,Er1 Si1 Ni3,5.706942797,5.706942797,5.706942797,141.2794707,141.2794707,55.91565916,tet,I4mm,-0.613836666,0.014741681,0.0,Er,Si,Ni
mp-1184204,Er1 Ta1 O3,4.022902,4.022902,4.022902,90.0,90.0,90.0,cubic,Pm-3m,-2.784921232,0.721276199,0.0,Er,Ta,O
mp-756296,Er1 Ti1 O3,5.303883,5.688936,7.660294,90.0,90.0,90.0,ortho,Pnma,-3.644023935,0.058028161,0.0,Er,Ti,O
mp-1184219,Er1 Tl1 O3,4.406,4.406,4.406,90.0,90.0,90.0,cubic,Pm-3m,-1.994943664,0.583822038,0.0,Er,Tl,O
mp-19205,Er1 V1 O3,5.20978186,5.64494742,7.49784195,90.0,90.0,90.0,ortho,Pnma,-3.310515878,0.0,1.5838,Er,V,O
mp-1184207,Er1 Zn1 O3,3.827502,3.827502,3.827502,90.0,90.0,90.0,cubic,Pm-3m,-2.285035999,0.459870695,0.0,Er,Zn,O
mp-1069296,Eu3 In1 O1,5.05264029,5.05256428,5.05271312,90.0,90.0,90.0,cubic,Pm-3m,-1.453046447,0.0,0.0,In,O,Eu
mp-1077622,Eu1 Ag1 O3,4.089373,4.089373,4.089373,90.0,90.0,90.0,cubic,Pm-3m,-1.506662538,0.403265287,0.0,Eu,Ag,O
mp-1225249,Eu1 Al3 Si1,6.239298855,6.239298855,6.239298855,139.2442459,139.2442459,59.00262184,tet,I4mm,-0.332916326,0.028563793,0.0,Eu,Si,Al
mp-21455,Eu1 Al1 O3,5.318991,5.33985,7.555933,90.0,90.0,90.0,ortho,Pnma,-3.324379769,0.111482014,0.0,Eu,Al,O
mp-973892,Eu1 Al1 O3,3.768155,3.768155,3.768155,90.0,90.0,90.0,cubic,Pm-3m,-3.315465348,0.120396434,0.0,Eu,Al,O
mp-983564,Eu1 As1 O3,3.998452,3.998452,3.998452,90.0,90.0,90.0,cubic,Pm-3m,-2.258794934,0.27696565,0.0,Eu,As,O
mp-1184383,Eu1 Au1 O3,4.109532,4.109532,4.109532,90.0,90.0,90.0,cubic,Pm-3m,-1.475938794,0.475574182,0.0,Eu,Au,O
mp-1225223,Eu1 B1 O3,4.042074832,4.042074832,8.9696,90.0,90.0,118.4972262,ortho,Ama2,-3.0584351,0.063179334,0.0,Eu,B,O
mp-22030,Eu1 B1 O3,6.282324533,6.504632506,6.492541379,92.85356108,107.4884273,106.9227666,tri,P-1,-3.098299252,0.023315182,0.0,Eu,B,O
mp-20040,Eu1 B1 Pd3,4.34027797,4.34027385,4.34027282,90.0,90.0,90.0,cubic,Pm-3m,-0.514773107,0.07280895,0.0,Eu,B,Pd
mp-510377,Eu1 B1 Rh3,4.22587613,4.22581656,4.22584018,90.0,90.0,90.0,cubic,Pm-3m,-0.463738159,0.02434348,0.0,Eu,B,Rh
mp-1184325,Eu1 Be1 O3,3.642742,3.642742,3.642742,90.0,90.0,90.0,cubic,Pm-3m,-2.565422535,0.398306064,0.0,Eu,Be,O
mp-554518,Eu1 C1 O3,5.10965115,5.94351265,8.41489239,90.0,89.99997449,90.0,ortho,Pnma,-2.622428861,0.0,0.4293,Eu,C,O
mp-1183878,Eu1 Cd1 O3,4.163324,4.163324,4.163324,90.0,90.0,90.0,cubic,Pm-3m,-1.675695014,0.585351804,0.0,Eu,Cd,O
mp-10690,Eu1 Co1 Ge3,4.288636251,4.288636478,5.787390126,111.7474173,111.7474131,89.9999951,tet,I4mm,-0.451206875,0.0,0.0,Eu,Co,Ge
mp-1075975,Eu1 Co1 O3,3.770115,3.770115,3.770115,90.0,90.0,90.0,cubic,Pm-3m,-2.055794952,0.281767473,0.0,Eu,Co,O
mp-1212757,Eu1 Co1 O3,5.29294207,5.27999014,7.57930649,90.0,90.0,90.0,ortho,Pnma,-2.208305559,0.129256866,0.0,Eu,Co,O
mp-1189762,Eu1 Cr1 O3,5.39511602,5.39569274,7.69309849,90.0,90.0,90.0,ortho,Pnma,-2.795692884,0.110187279,0.0,Eu,Cr,O
mp-754941,Eu1 Cr1 O3,3.879619,3.879619,3.879619,90.0,90.0,90.0,cubic,Pm-3m,-2.718079346,0.187800817,0.0,Eu,Cr,O
mp-1075902,Eu1 Cu1 O3,3.825935,3.825935,3.825935,90.0,90.0,90.0,cubic,Pm-3m,-1.977672172,0.170852856,0.0,Eu,Cu,O
mp-1338333,Eu1 Cu1 O3,8.089775986,8.089775986,6.304161325,70.40592621,70.40592621,47.04199132,mono,C2/c,-1.97338039,0.175144638,0.0,Eu,Cu,O
mp-1225144,Eu1 Cu1 Si3,5.596672516,5.596672516,5.596672516,134.6879577,134.6879577,66.01543124,tet,I-4m2,-0.219559381,0.133817633,0.0,Eu,Cu,Si
mp-1183905,Eu1 Er1 O3,4.303652,4.303652,4.303652,90.0,90.0,90.0,cubic,Pm-3m,-3.140364764,0.610768563,0.0,Eu,Er,O
mp-1011260,Eu1 Fe1 O3,5.522427079,5.522427079,5.522427079,120.3349113,119.509033,90.136686,ortho,Imma,-2.413201902,0.162930053,0.0,Eu,Fe,O