mp_id,formula,sites,composition,a_edge (angstrom),b_edge (angstrom),c_edge (angstrom),alpha_ang (deg),beta_ang (deg),gamma_ang (deg),crystal_system,space_group,total_magnetisation (bohr),energy_per_atom (eV/atom),formation_energy (eV/atom),energy_above_hull (eV/atom),stable,density (g/cc),band_gap (eV),direct_bandgap,volume (cubic-angstrom),bulk_modulus (GPa),shear_modulus (GPa)
mp-611033,SrRuO3,20,Sr1 Ru1 O3,5.166891,5.199313,13.16028,90,90,90,ortho,Pnma,1.3669357,-6.843026338,-1.680883608,0.509728029,FALSE,4.446776517,0,FALSE,353.5414935,,
mp-1187192,SrSbO3,5,Sr1 Sb1 O3,4.208672,4.208672,4.208672,90,90,90,cubic,Pm-3m,0.0001207,-6.508668766,-2.375606297,0.132098441,FALSE,5.733048488,0,FALSE,74.54787046,,
mp-1204655,SrSbSe3,80,Sr1 Sb1 Se3,4.210294,15.852011,33.670018,90,90,90,ortho,P2_12_12_1,0.0443251,-4.505314723,-1.24348197,0,TRUE,5.276147212,0.3581,FALSE,2247.191776,,
mp-1187191,SrScO3,5,Sr1 Sc1 O3,4.139926,4.139926,4.139926,90,90,90,cubic,Pm-3m,1.0000531,-7.760309614,-3.186553572,0.091257467,FALSE,4.225974288,0,FALSE,70.95413908,,
mp-3395,SrSeO3,10,Sr1 Se1 O3,4.464503016,5.48280168,6.553714734,90,107.2429275,90,mono,P2_1/m,0,-6.32210198,-2.315657463,0,TRUE,4.651279267,3.7027,FALSE,153.2118213,,
mp-555098,SrSeO3,20,Sr1 Se1 O3,4.47018024,5.47644898,12.51970382,90,90,90,ortho,Pnma,0,-6.322036721,-2.315592204,6.53E-05,FALSE,4.650252676,3.8862,FALSE,306.4912888,,
mp-1067925,SrSi3Au,5,Sr1 Si3 Au1,5.861096705,5.861096705,5.861096705,135.6158621,135.6158621,64.57478076,tet,I4mm,1.00E-07,-18.77961782,-0.369234817,0.013149417,FALSE,6.305498264,0,FALSE,97.13400906,,
mp-1069139,SrSi3Ni,5,Sr1 Si3 Ni1,5.71175116,5.71175116,5.71175116,137.1550889,137.1550889,62.19951541,tet,I4mm,0,-11.12407731,-0.434342905,0,TRUE,4.496896688,0,FALSE,85.14101014,,
mp-1017439,SrSiO3,5,Sr1 Si1 O3,3.698902,3.698902,3.698902,90,90,90,cubic,Pm-3m,2.80E-06,-7.50927637,-3.116950543,0.32427593,FALSE,5.371420069,2.3831,FALSE,50.60791852,,
mp-1173151,SrSiO3,20,Sr1 Si1 O3,4.425766346,7.636785955,10.902415,90,90,91.06611217,mono,Pc,0.0013749,-6.930511855,-2.538186028,0.903040446,FALSE,2.951351668,0.0514,TRUE,368.4229055,,
mp-18313,SrSiO3,30,Sr1 Si1 O3,6.945185745,6.955362711,9.712505184,69.57432701,83.49285053,75.56126536,tri,P-1,0,-7.816532864,-3.424207037,0.017019436,FALSE,3.832191555,4.3766,TRUE,425.6098141,,
mp-3978,SrSiO3,30,Sr1 Si1 O3,7.136260513,7.136260513,10.9044951,71.42083431,71.42083431,60.1595747,mono,C2/c,0,-7.8335523,-3.441226473,0,TRUE,3.641838873,4.6251,FALSE,447.8557103,,
mp-561547,SrSiO3,40,Sr1 Si1 O3,6.156284,7.549925,13.62593721,63.22638311,90,90,mono,P2_1/c,0.0006382,-7.797524855,-3.405199028,0.036027446,FALSE,3.846085819,4.8212,FALSE,565.4296904,,
mp-30834,SrSn3Pd,5,Sr1 Sn3 Pd1,4.805384472,4.805384472,6.644368713,111.1851596,111.18516,89.98720191,tet,I4mm,0,-4.359321092,-0.579115999,0,TRUE,6.927141915,0,FALSE,131.8839414,"{'voigt': 56.483, 'reuss': 56.302, 'vrh': 56.392}","{'voigt': 14.911, 'reuss': 11.912, 'vrh': 13.412}"
mp-12866,SrSnO3,10,Sr1 Sn1 O3,5.72636674,5.726367057,5.726367038,90.4842804,119.4524215,119.9899029,ortho,Imma,0,-6.742876206,-2.633699614,0.003659024,FALSE,6.33509606,1.6118,FALSE,133.3277058,,
mp-12867,SrSnO3,10,Sr1 Sn1 O3,5.755857676,5.755857372,5.755854614,120.9187994,120.9188034,88.41596687,tet,I4/mcm,0,-6.739828273,-2.63065168,0.006706957,FALSE,6.354962396,1.555,FALSE,132.9109082,"{'voigt': 138.925, 'reuss': 137.852, 'vrh': 138.388}","{'voigt': 83.659, 'reuss': 82.592, 'vrh': 83.126}"
mp-2879,SrSnO3,20,Sr1 Sn1 O3,5.73820206,5.72649997,8.10161313,90,90,90,ortho,Pnma,0,-6.74653523,-2.637358638,0,TRUE,6.345516909,1.7365,FALSE,266.2174999,"{'voigt': 137.575, 'reuss': 137.455, 'vrh': 137.515}","{'voigt': 75.222, 'reuss': 74.683, 'vrh': 74.953}"
mp-546973,SrSnO3,5,Sr1 Sn1 O3,4.114859,4.114859,4.114859,90,90,90,cubic,Pm-3m,0,-6.698800456,-2.589623864,0.047734773,FALSE,6.06148089,0.9698,FALSE,69.67305837,"{'voigt': 142.602, 'reuss': 142.602, 'vrh': 142.602}","{'voigt': 88.63, 'reuss': 87.564, 'vrh': 88.097}"
mp-1205419,SrSnS3,20,Sr1 Sn1 S3,3.89318425,8.30673434,14.2045019,90,90,90,ortho,Pnma,0,-14.06757103,-1.268202613,0,TRUE,4.37430509,0.8336,FALSE,459.3685815,,
mp-1186755,SrTaO3,5,Sr1 Ta1 O3,4.066878,4.066878,4.066878,90,90,90,cubic,Pm-3m,0.0002377,-8.959535526,-3.278887796,0.059606807,FALSE,7.815019078,0,FALSE,67.26411513,,
mp-21898,SrTbO3,20,Sr1 Tb1 O3,6.048345,6.226708,8.597645,90,90,90,ortho,Pnma,3.9985691,-7.380450356,-3.14561541,0.121943572,FALSE,6.042046191,0,FALSE,323.7983002,,
mp-989530,SrTcN3,10,Sr1 Tc1 N3,3.756696771,6.465001679,6.670802246,104.3540737,90.00000018,106.8903495,mono,C2/m,0,-14.24295307,-0.543638045,0.040815144,FALSE,5.049104206,0.5244,FALSE,149.7316212,"{'voigt': 103.819, 'reuss': 97.962, 'vrh': 100.89}","{'voigt': 46.271, 'reuss': 37.922, 'vrh': 42.097}"
mp-989546,SrTcN3,10,Sr1 Tc1 N3,6.653808093,6.653808093,5.768975,90,90,143.1008352,ortho,Cmcm,0.0007504,-14.26386881,-0.56455378,0.01989941,FALSE,4.929941673,0,FALSE,153.3508119,,
mp-989586,SrTcN3,10,Sr1 Tc1 N3,6.695544671,6.695544671,5.719636,90,90,143.2849646,ortho,C222_1,0.0008895,-14.26386042,-0.564545395,0.019907795,FALSE,4.931805338,0,FALSE,153.2928626,"{'voigt': 85.622, 'reuss': 84.513, 'vrh': 85.068}","{'voigt': 28.653, 'reuss': 17.063, 'vrh': 22.858}"
mp-989627,SrTcN3,20,Sr1 Tc1 N3,6.088211309,7.525325655,7.525326328,92.2073988,101.0072062,78.99280676,mono,C2/c,0,-14.28376822,-0.58445319,0,TRUE,4.551416369,1.5818,FALSE,332.2089201,,
mp-1079334,SrTcO3,10,Sr1 Tc1 O3,5.615114369,5.615114369,5.615114369,120.3260759,119.2689768,90.35347685,ortho,Imma,5.8404076,-7.779043273,-2.399653263,0.055315276,FALSE,6.179490483,0,FALSE,125.5547359,,
mp-1188414,SrTcO3,20,Sr1 Tc1 O3,5.61607528,5.54823333,7.97698419,90,89.999889,89.99998129,ortho,Pnma,3.23E-05,-7.83435855,-2.45496854,0,TRUE,6.24294334,0,FALSE,248.557212,,
mp-12631,SrTcO3,5,Sr1 Tc1 O3,3.96238547,3.96239136,3.96240069,90,90,90,cubic,Pm-3m,2.1712035,-7.757260317,-2.377870307,0.077098233,FALSE,6.235672386,0,FALSE,62.21175901,,
mp-1179315,SrTeO3,120,Sr1 Te1 O3,5.992505,14.60495378,26.80127975,83.29955334,83.59040345,78.1766956,tri,P1,0.0298005,-6.313742546,-2.377819146,0.003206169,FALSE,4.61931436,3.2315,FALSE,2270.903793,,
mp-1179320,SrTeO3,120,Sr1 Te1 O3,5.993651,14.59121092,26.7028078,93.78794742,96.31558572,101.8378551,mono,C2/c,0.0021157,-6.312616381,-2.376692981,0.004332334,FALSE,4.636886936,3.3726,FALSE,2262.297668,,
mp-561385,SrTeO3,60,Sr1 Te1 O3,14.38679608,14.38679608,15.28444418,58.71163675,58.71163675,23.72194348,mono,C2,0,-6.314576811,-2.378653412,0.002371903,FALSE,4.862303272,3.4789,FALSE,1078.708784,,
mp-647158,SrTeO3,120,Sr1 Te1 O3,5.996545938,14.58929409,26.71530825,83.54535156,83.55722438,78.15374116,mono,Cc,5.71E-05,-6.310730563,-2.374807163,0.006218152,FALSE,4.634721961,3.3579,FALSE,2263.354434,,
mp-662523,SrTeO3,30,Sr1 Te1 O3,5.955489,9.200745106,12.31902841,110.4661778,90.04590536,90.82730035,tri,P1,0.0002825,-6.285391332,-2.349467932,0.031557383,FALSE,4.147340853,3.174,FALSE,632.3339985,,
mp-667421,SrTeO3,120,Sr1 Te1 O3,5.993651,14.59121092,26.7028078,93.78794742,96.31558572,101.8378551,tri,P-1,0.0007906,-6.310394317,-2.374470918,0.006554397,FALSE,4.636886936,3.4208,FALSE,2262.297668,,
mp-972117,SrTeO3,20,Sr1 Te1 O3,7.23965219,6.791806534,8.679399906,53.49735093,90,90,mono,P2_1/c,0,-6.316948715,-2.381025315,0,TRUE,5.096457796,3.6116,FALSE,343.0493269,,
mp-4651,SrTiO3,10,Sr1 Ti1 O3,5.522329701,5.522329559,5.534898479,119.9249071,119.9249046,89.99999866,tet,I4/mcm,0,-8.438022916,-3.551662292,0,TRUE,5.093987782,1.8488,FALSE,119.625078,"{'voigt': 168.404, 'reuss': 168.036, 'vrh': 168.22}","{'voigt': 101.262, 'reuss': 100.965, 'vrh': 101.114}"
mp-5229,SrTiO3,5,Sr1 Ti1 O3,3.91270131,3.91270131,3.91270131,90,90,90,cubic,Pm-3m,0,-8.437552862,-3.551192238,0.000470054,FALSE,5.086511724,1.772,FALSE,59.90045031,"{'voigt': 170.929, 'reuss': 170.929, 'vrh': 170.929}","{'voigt': 108.497, 'reuss': 108.497, 'vrh': 108.497}"
mp-551830,SrTiO3,10,Sr1 Ti1 O3,5.533921315,5.533921683,5.533925593,120.0278688,120.0278751,89.95176766,tet,I4/mcm,0,-8.437938168,-3.551577544,8.47E-05,FALSE,5.087203752,1.787,TRUE,119.7846037,,
mp-776018,SrTiO3,30,Sr1 Ti1 O3,5.628854383,5.628854383,13.886038,90,90,120.0000045,hex_,P6_3/mmc,3.26E-05,-8.398920445,-3.51255982,0.039102471,FALSE,4.797913331,1.7362,TRUE,381.0210669,,
mp-1080529,SrTiS3,10,Sr1 Ti1 S3,6.622387791,6.622387791,5.812368,90,90,119.9999979,hex_,P6_3/mmc,0.0001941,-6.239343795,-1.838744033,0.082437121,FALSE,3.485446541,0,FALSE,220.7562259,,
mp-981367,SrTlO3,5,Sr1 Tl1 O3,4.279558,4.279558,4.279558,90,90,90,cubic,Pm-3m,0.0011998,-5.40582679,-1.624270146,0.240666966,FALSE,7.203327833,0,FALSE,78.37846431,"{'voigt': 98.451, 'reuss': 98.451, 'vrh': 98.451}","{'voigt': 46.862, 'reuss': 39.933, 'vrh': 43.398}"
mp-1186758,SrTmO3,5,Sr1 Tm1 O3,4.316318,4.316318,4.316318,90,90,90,cubic,Pm-3m,0.999033,-7.323091074,-3.119328557,0.205895363,FALSE,6.288844233,0,FALSE,80.41559878,,
mp-18717,SrVO3,5,Sr1 V1 O3,3.900891,3.900891,3.900891,90,90,90,cubic,Pm-3m,0.999467,-8.00291119,-2.878867755,0.039101677,FALSE,5.218858073,0,FALSE,59.35966562,,
mp-989513,SrWN3,10,Sr1 W1 N3,3.82253228,6.427569316,6.700715156,102.9563372,89.99998229,107.2987702,mono,C2/m,0,-19.58783746,-0.807895963,0.018614444,FALSE,6.813809556,1.2682,FALSE,152.7914593,"{'voigt': 105.48, 'reuss': 94.462, 'vrh': 99.971}","{'voigt': 49.568, 'reuss': 43.142, 'vrh': 46.355}"
mp-989625,SrWN3,10,Sr1 W1 N3,3.674235249,6.354455054,6.648418908,110.0319125,96.44294237,91.02012007,tri,P1,0,-19.6064519,-0.826510407,0,TRUE,7.197288499,1.1076,FALSE,144.650573,,
mp-1186764,SrWO3,5,Sr1 W1 O3,4.101269,4.101269,4.101269,90,90,90,cubic,Pm-3m,1.9998355,-8.354587706,-2.455699439,0.195045571,FALSE,7.689681847,0,FALSE,68.98501548,,
mp-1217777,SrZnIn3,5,Sr1 Zn1 In3,6.88777684,6.88777684,6.88777684,140.7312535,140.7312535,56.74465947,tet,I4mm,0,-2.536667262,-0.290728676,0,TRUE,6.361886939,0,FALSE,129.849833,,
mp-1186757,SrZnO3,5,Sr1 Zn1 O3,3.980065,3.980065,3.980065,90,90,90,cubic,Pm-3m,0.3169806,-5.43028577,-1.871074827,0.167972298,FALSE,5.29460331,0,FALSE,63.04788093,,
mp-1020622,SrZrO3,10,Sr1 Zr1 O3,5.78296588,5.78296588,4.18518549,90,90,90,tet,P4/mbm,0,-8.661218589,-3.644416242,0.017242587,FALSE,5.382536368,3.1681,FALSE,139.9638792,"{'voigt': 144.423, 'reuss': 140.325, 'vrh': 142.374}","{'voigt': 90.182, 'reuss': 87.896, 'vrh': 89.039}"
mp-1068742,SrZrO3,5,Sr1 Zr1 O3,4.176861,4.176861,4.274988,90,90,90,tet,P4mm,0.000111,-8.63012045,-3.613318103,0.048340726,FALSE,5.050542179,3.2609,FALSE,74.58215805,,
mp-1080575,SrZrO3,10,Sr1 Zr1 O3,5.81235817,5.81235817,5.81235817,90.50057896,119.6121185,119.8108052,ortho,Imma,0,-8.673868737,-3.65706639,0.004592439,FALSE,5.402446177,3.4652,FALSE,139.4480658,,
mp-3323,SrZrO3,5,Sr1 Zr1 O3,4.197594,4.197594,4.197594,90,90,90,cubic,Pm-3m,0,-8.623552264,-3.606749917,0.054908912,FALSE,5.092976319,3.2144,FALSE,73.96074741,"{'voigt': 152.318, 'reuss': 152.318, 'vrh': 152.318}","{'voigt': 91.087, 'reuss': 84.917, 'vrh': 88.002}"
mp-3626,SrZrO3,20,Sr1 Zr1 O3,5.814864578,5.814864578,8.25266177,90,90,90.63032988,ortho,Cmcm,0,-8.671277419,-3.654475072,0.007183756,FALSE,5.399903081,3.416,FALSE,279.0274784,,
mp-4387,SrZrO3,20,Sr1 Zr1 O3,5.79524115,5.8442896,8.21457412,90,90,90,ortho,Pnma,0,-8.678461176,-3.661658829,0,TRUE,5.41557589,3.6122,FALSE,278.219966,"{'voigt': 145.812, 'reuss': 145.795, 'vrh': 145.804}","{'voigt': 83.332, 'reuss': 82.623, 'vrh': 82.978}"
mp-5076,SrZrO3,10,Sr1 Zr1 O3,5.844042019,5.844042429,5.844044603,120.8401656,120.8401603,88.55086966,tet,I4/mcm,0,-8.669165849,-3.652363502,0.009295327,FALSE,5.408526223,3.5667,FALSE,139.291304,"{'voigt': 145.137, 'reuss': 140.924, 'vrh': 143.03}","{'voigt': 88.64, 'reuss': 86.307, 'vrh': 87.474}"
mp-557203,SrZrO3,40,Sr1 Zr1 O3,8.396673,8.396673,8.396673,90,90,90,cubic,P2_13,4.61E-05,-8.623731216,-3.606928869,0.054729959,FALSE,5.09027463,3.542,FALSE,592.0000195,,
mp-613402,SrZrO3,5,Sr1 Zr1 O3,4.405374,4.405374,4.405374,90,90,90,cubic,Pm-3m,0.0278837,-6.161220496,-1.144418149,2.51724068,FALSE,4.405798139,0,FALSE,85.49650329,,
mp-5193,SrZrS3,20,Sr1 Zr1 S3,6.76185335,7.15875562,9.80481376,90,90,90,ortho,Pnma,0,-6.608256288,-2.077214803,0.006412831,FALSE,3.849113661,1.1777,TRUE,474.6162826,"{'voigt': 69.876, 'reuss': 68.692, 'vrh': 69.284}","{'voigt': 37.242, 'reuss': 34.895, 'vrh': 36.069}"
mp-558760,SrZrS3,20,Sr1 Zr1 S3,3.84019975,8.58682343,13.99646858,90,90,90,ortho,Pnma,0,-6.614669119,-2.083627635,0,TRUE,3.958207414,0.5512,TRUE,461.5351917,,
mp-541570,SrZrSe3,20,Sr1 Zr1 Se3,3.992994,9.063053,14.655838,90,90,90,ortho,Pnma,0.0011343,-18.02825434,-1.862227604,0.027114558,FALSE,5.206313946,0.1669,TRUE,530.3759628,,
mp-1187189,TaAgO3,5,Ta1 Ag1 O3,3.99937,3.99937,3.99937,90,90,90,cubic,Pm-3m,6.60E-06,-8.303033604,-2.392283957,0.045000393,FALSE,8.743087804,1.7306,FALSE,63.96976476,,
mp-9890,TaAgO3,10,Ta1 Ag1 O3,5.650974756,5.650974756,5.650975557,59.12014481,59.12014481,59.12013817,trig,R-3c,0.0001804,-8.316438579,-2.405688932,0.031595418,FALSE,8.9456744,1.9156,FALSE,125.0421701,,
mp-561242,TaAgS3,10,Ta1 Ag1 S3,7.378684638,7.378684638,7.785585,90,90,153.4239758,ortho,Cmc2_1,0.0008173,-6.379751501,-0.954762716,0.000200564,FALSE,6.74251415,0,FALSE,189.6402218,,
mp-5821,TaAgS3,10,Ta1 Ag1 S3,3.39027577,7.248142956,7.78929486,90,90,103.5251461,ortho,Cmcm,1.00E-07,-6.379952065,-0.95496328,0,TRUE,6.870790229,0,FALSE,186.0996823,"{'voigt': 87.828, 'reuss': 77.936, 'vrh': 82.882}","{'voigt': 45.532, 'reuss': 27.659, 'vrh': 36.596}"
mp-972222,TaBeO3,5,Ta1 Be1 O3,3.421618,3.421618,3.421618,90,90,90,cubic,Pm-3m,0.001708,-8.196267866,-2.106223181,1.008994493,FALSE,9.864051248,0,FALSE,40.05848919,"{'voigt': 277.307, 'reuss': 277.307, 'vrh': 277.307}","{'voigt': 105.827, 'reuss': 101.362, 'vrh': 103.594}"
mp-1208583,TaCl3O,20,Ta1 Cl3 O1,3.80935944,11.22580866,11.22580866,90,90,90,tet,P4_2/mnm,0,-6.754344862,-2.282245156,0,TRUE,4.196654989,3.0691,FALSE,480.0508295,,
mp-756050,TaCuO3,20,Ta1 Cu1 O3,6.439122216,6.439122216,6.823248275,89.82698392,89.82698392,83.93754332,mono,C2/m,0.0009595,-8.664869109,-2.502865663,0.03308016,FALSE,6.905862719,1.5612,FALSE,281.3230122,,
mp-3102,TaCuS3,20,Ta1 Cu1 S3,3.51188539,9.52958893,11.89053138,90,90,90,ortho,Pnma,0,-6.740789458,-1.064546875,0,TRUE,5.686581691,0.418,FALSE,397.9383226,"{'voigt': 42.982, 'reuss': 36.847, 'vrh': 39.914}","{'voigt': 27.13, 'reuss': 23.843, 'vrh': 25.486}"
mp-1187220,TaFeO3,5,Ta1 Fe1 O3,3.979417,3.979417,3.979417,90,90,90,cubic,Pm-3m,3.0137322,-9.176723004,-2.14055665,0.538212133,FALSE,7.504419915,0,FALSE,63.0170912,,
mp-8848,TaFeTe3,10,Ta1 Fe1 Te3,3.537942,8.06544,10.38994936,69.0249063,90,90,mono,P2_1/m,3.8148876,-6.463757777,-0.51038449,0.020059773,FALSE,7.433085838,0,FALSE,276.8320466,,
mp-33753,TaHO3,20,Ta1 H1 O3,7.501014527,7.501014527,7.501014527,117.7448093,117.7448093,93.95260774,tet,I4_1/amd,0.0001539,-8.670700966,-2.649505566,0.077089524,FALSE,4.962087443,2.9434,FALSE,307.8120957,,
mp-1187260,TaInO3,5,Ta1 In1 O3,4.067159,4.067159,4.067159,90,90,90,cubic,Pm-3m,2.90E-06,-8.400880748,-2.506883888,0.178475824,FALSE,8.484693138,0,FALSE,67.27805888,,
mp-1247469,TaMoN3,20,Ta1 Mo1 N3,8.60456501,5.462802656,8.12136352,119.2787766,94.08256052,119.6476564,tri,P-1,0.0005603,-10.2192425,-0.673760322,0.224364219,FALSE,8.037451945,0,FALSE,263.5457919,,
mp-1101316,TaOF3,5,Ta1 O1 F3,5.204561116,5.204561116,5.204561116,136.3106482,133.5473125,65.66639405,ortho,Immm,0.0002367,-7.958431196,-3.448566106,0.061258639,FALSE,6.06477243,2.7903,FALSE,69.52963686,,
mp-677065,TaOF3,25,Ta1 O1 F3,4.064072,4.896629571,18.22848273,90.82835344,89.89660436,114.0977311,tri,P1,0.0003266,-7.740229773,-3.230364683,0.279460061,FALSE,6.367889103,2.1533,FALSE,331.0998494,,
mp-22087,TaRu3C,5,Ta1 Ru3 C1,4.055608,4.055608,4.055608,90,90,90,cubic,Pm-3m,3.40E-06,-9.858502362,-0.074742231,0.153559606,FALSE,12.35123666,0,FALSE,66.70646295,,
mp-8074,TaSnO3,5,Ta1 Sn1 O3,4.072593,4.072593,4.072593,90,90,90,cubic,Pm-3m,0.0013352,-8.50414018,-2.360063697,0.324955825,FALSE,8.546452733,0,FALSE,67.54808347,"{'voigt': 189.595, 'reuss': 189.595, 'vrh': 189.595}","{'voigt': 44.567, 'reuss': 0.28, 'vrh': 22.423}"
mp-676262,TaTlO3,40,Ta1 Tl1 O3,7.54030697,7.54030697,13.0620291,72.93415426,72.93415426,60.01921597,mono,C2/c,0,-8.500544169,-2.684087634,0,TRUE,9.511450247,0.9801,FALSE,605.2161094,,
mp-756933,TaTlO3,20,Ta1 Tl1 O3,7.545341357,7.545341357,7.545341357,60,60,60,cubic,Fd-3m,0,-8.496269444,-2.679812909,0.004274725,FALSE,9.475574379,0.656,FALSE,303.7537717,,
mp-861873,TaTlO3,5,Ta1 Tl1 O3,4.082848,4.082848,4.082848,90,90,90,cubic,Pm-3m,4.67E-05,-8.393179314,-2.576722779,0.107364855,FALSE,10.57249765,0.6811,TRUE,68.05963814,"{'voigt': 187.786, 'reuss': 187.786, 'vrh': 187.786}","{'voigt': 106.695, 'reuss': 102.727, 'vrh': 104.711}"
mp-10795,TaTlS3,20,Ta1 Tl1 S3,3.52052828,9.36354836,14.4418627,90,90,90,ortho,Pnma,0,-6.416457265,-1.085761593,0.000669481,FALSE,6.7182705,0.5958,FALSE,476.0707587,,
mp-12027,TaTlSe3,20,Ta1 Tl1 Se3,3.650713,9.842243,15.345726,90,90,90,ortho,Pnma,0.0029525,-29.68222779,-0.741064191,0.024487024,FALSE,7.495276937,0.2993,FALSE,551.3904186,,
mp-1246615,TaWN3,20,Ta1 W1 N3,5.885075274,9.572887855,7.886044118,123.8571922,76.09126996,119.1331191,tri,P-1,0.0010677,-26.01794999,-0.548774164,0.38517527,FALSE,8.39221911,0.233,FALSE,321.9746932,,
mp-10041,Tb3AlC,5,Tb3 Al1 C1,5.374107,5.374107,5.374107,90,90,90,cubic,Pm-3m,0.0001463,-3.945755512,1.431810927,1.786531184,FALSE,5.518039522,0,FALSE,155.2097242,"{'voigt': 36.148, 'reuss': 36.148, 'vrh': 36.148}","{'voigt': 20.762, 'reuss': 7.792, 'vrh': 14.277}"
mp-570822,Tb3AlC,5,Tb3 Al1 C1,4.90293061,4.90293061,4.90293061,90,90,90,cubic,Pm-3m,1.10E-06,-5.732286696,-0.354720257,0,TRUE,7.26668766,0,FALSE,117.8602181,"{'voigt': 76.355, 'reuss': 76.355, 'vrh': 76.355}","{'voigt': 58.994, 'reuss': 58.886, 'vrh': 58.94}"
mp-1018638,Tb3AlN,5,Tb3 Al1 N1,4.78290322,4.78290322,4.78290322,90,90,90,cubic,Pm-3m,2.02E-05,-22.9815785,-1.073548212,0,TRUE,7.857898427,0,FALSE,109.4144747,,
mp-1206878,Tb3GaC,5,Tb3 Ga1 C1,4.87141646,4.87141646,4.87141646,90,90,90,cubic,Pm-3m,7.60E-06,-5.648534098,-0.414463621,0,TRUE,8.022580413,0,FALSE,115.6021144,,
mp-21392,Tb3InC,5,Tb3 In1 C1,5.609421,5.609421,5.609421,90,90,90,cubic,Pm-3m,1.70E-05,-3.585575838,1.594710183,1.918801767,FALSE,5.678683161,0,FALSE,176.5038196,,
mp-19769,Tb3InN,5,Tb3 In1 N1,4.82578461,4.82578461,4.82578461,90,90,90,cubic,Pm-3m,2.06E-05,-26.26768772,-1.190359024,0,TRUE,8.948117939,0,FALSE,112.3838232,,
mp-20963,Tb3PbC,5,Tb3 Pb1 C1,5.706678,5.706678,5.706678,90,90,90,cubic,Pm-3m,0.0004938,-3.7572335,1.613747187,2.030639236,FALSE,6.218705134,0,FALSE,185.8446675,,
mp-20750,Tb3SnC,5,Tb3 Sn1 C1,5.630732,5.630732,5.630732,90,90,90,cubic,Pm-3m,0.0151176,-3.979349696,1.451015948,1.963342266,FALSE,5.650650999,0,FALSE,178.5231624,,
mp-19836,Tb3TlC,5,Tb3 Tl1 C1,5.640493,5.640493,5.640493,90,90,90,cubic,Pm-3m,0.0006885,-3.486166062,1.616579634,1.906848261,FALSE,6.414129049,0,FALSE,179.4531945,,
mp-1217573,TbAl3Ag,5,Tb1 Al3 Ag1,4.191552,4.185423,6.383764501,70.86362779,70.83450709,90,tet,I-4m2,0.0002685,-4.097075332,-0.353569574,0.000346981,FALSE,5.820268715,0,FALSE,99.21067867,,
mp-4434,TbAlO3,20,Tb1 Al1 O3,5.19165377,5.30555533,7.39404835,90,90,90,ortho,Pnma,0,-8.385168667,-3.739704173,0.009000525,FALSE,7.628337563,5.5982,FALSE,203.666151,,
mp-1217607,TbBO3,10,Tb1 B1 O3,3.889950755,4.323501719,8.52708142,90,90,56.29794858,ortho,Ama2,0,-8.699016827,-3.466789145,0,TRUE,6.060902319,4.4297,FALSE,119.3078876,,
mp-3022,TbBPd3,5,Tb1 B1 Pd3,4.327708,4.327708,4.327708,90,90,90,cubic,Pm-3m,0,-22.14554416,-0.654714329,0.112749955,FALSE,10.01799623,0,FALSE,81.05388779,"{'voigt': 142.81, 'reuss': 142.81, 'vrh': 142.81}","{'voigt': 18.497, 'reuss': 2.656, 'vrh': 10.576}"
mp-3869,TbBRh3,5,Tb1 B1 Rh3,4.17922594,4.17922594,4.17922594,90,90,90,cubic,Pm-3m,0.000696,-7.467043082,-0.785007281,0,TRUE,10.88430469,0,FALSE,72.99406546,,