mp_id,formula,sites,composition,a_edge (angstrom),b_edge (angstrom),c_edge (angstrom),alpha_ang (deg),beta_ang (deg),gamma_ang (deg),crystal_system,space_group,total_magnetisation (bohr),energy_per_atom (eV/atom),formation_energy (eV/atom),energy_above_hull (eV/atom),stable,density (g/cc),band_gap (eV),direct_bandgap,volume (cubic-angstrom),bulk_modulus (GPa),shear_modulus (GPa)
mp-34078,H3ClO,5,H3 Cl1 O1,4.04072666,4.04072761,4.040728367,72.6206786,72.62067608,72.62065901,trig,R3m,9.40E-06,-4.538108738,-1.141709342,0.005834146,FALSE,1.546911483,5.3864,TRUE,58.47774259,,
mp-1181751,H3NCl,40,H3 N1 Cl1,10.12375459,10.46561117,6.948137932,91.35170445,94.11293506,109.7169988,tri,P1,1.9997492,-4.420366394,-0.345903649,0.371334987,FALSE,1.009973383,0.8704,FALSE,690.3226303,,
mp-1200750,H3NCl,40,H3 N1 Cl1,7.911228,7.911228,7.911228,90,90,90,cubic,Pa-3,5.13E-05,-4.724293007,-0.649830263,0.067408374,FALSE,1.408089748,5.1807,FALSE,495.1442077,,
mp-760361,H3NCl,40,H3 N1 Cl1,8.583808,8.583808,8.583808,90,90,90,cubic,Pa-3,0.0008335,-4.572780653,-0.498317909,0.218920727,FALSE,1.102356468,2.7143,FALSE,632.4700791,,
mp-626534,H3NO,20,H3 N1 O1,4.723991,4.642221,7.160662911,88.85495443,90,90,mono,P2_1,0.0006942,-5.208242629,-0.513895016,0.36740352,FALSE,1.397382307,3.7763,FALSE,157.000621,,
mp-626542,H3NO,20,H3 N1 O1,5.251607,5.624597506,7.924790821,87.60940489,87.70838668,88.1246807,tri,P1,0,-4.769664723,-0.075317109,0.805981426,FALSE,0.939249513,0.2875,FALSE,233.5799882,,
mp-626543,H3NO,20,H3 N1 O1,5.124488,5.570499995,8.324174394,85.44119159,86.45030453,84.11241682,tri,P1,0,-5.36998858,-0.675640967,0.205657568,FALSE,0.932487766,2.4233,FALSE,235.2737463,,
mp-27714,H3OF,20,H3 O1 F1,4.17123172,5.89213507,6.10259572,90,90,90,ortho,Pnma,0,-4.945832638,-1.53684478,0,TRUE,1.683790799,6.7458,TRUE,149.9863065,,
mp-23963,HIO3,20,H1 I1 O3,5.716437,5.890396,8.00416,90,90,90,ortho,P2_12_12_1,0,-4.849783467,-0.897171053,0.01635329,FALSE,4.335262986,3.1022,FALSE,269.516697,"{'voigt': 14.741, 'reuss': 11.512, 'vrh': 13.126}","{'voigt': 12.205, 'reuss': 10.879, 'vrh': 11.542}"
mp-556216,HIO3,40,H1 I1 O3,5.689863,6.281024,15.264686,90,90,90,ortho,Pbca,7.74E-05,-4.848013936,-0.895401522,0.018122822,FALSE,4.283620432,3.0606,FALSE,545.5318831,,
mp-1199435,HNO3,40,H1 N1 O3,8.083698,8.69044,8.442266887,90,121.4313222,90,mono,P2_1/c,0.0259316,-6.201728861,-0.886263422,0.00404894,FALSE,1.654142243,3.8974,TRUE,506.0521632,,
mp-1224772,HNO3,80,H1 N1 O3,8.40384207,6.186005643,16.23030271,90.02950809,90,90,mono,P2_1,0,-6.205777801,-0.890312362,0,TRUE,1.984190553,3.8657,FALSE,843.7518856,,
mp-1004524,HPbI3,5,H1 Pb1 I3,6.244213,6.244213,6.244213,90,90,90,cubic,Pm-3m,1.2013159,-2.297984102,0.037986169,0.663115587,FALSE,4.016735819,0,FALSE,243.4630887,,
mp-27669,HS3N,40,H1 S3 N1,13.192363,8.5105,9.337230035,58.81438503,90,90,mono,P2/c,0,-4.854900539,-0.025195962,0.177171109,FALSE,1.647284742,3.1338,FALSE,896.8356087,,
mp-696216,HS3N,40,H1 S3 N1,7.454668,8.473771,13.350597,90,90,90,ortho,Pnma,0.0002727,-4.855782356,-0.026077779,0.176289293,FALSE,1.751764831,2.8733,TRUE,843.345858,,
mp-706654,HS3N,80,H1 S3 N1,8.537202,13.139007,14.622239,90,90,90,ortho,Pbca,0,-4.856177876,-0.026473299,0.175893772,FALSE,1.801438895,2.9526,TRUE,1640.181766,,
mp-1079110,Hf3AlN,10,Hf3 Al1 N1,5.898134001,5.898134001,8.83856158,90,90,147.4786892,ortho,Cmcm,0,-31.35153575,-1.088516715,0,TRUE,11.58153449,0,FALSE,165.3030393,,
mp-1014252,Hf3ZnN,10,Hf3 Zn1 N1,5.840821849,5.840821849,8.74354286,90,90,147.1263711,ortho,Cmcm,0,-31.7165886,-1.017868711,0,TRUE,12.61269599,0,FALSE,161.9069748,"{'voigt': 150.025, 'reuss': 148.48, 'vrh': 149.253}","{'voigt': 93.488, 'reuss': 90.799, 'vrh': 92.143}"
mp-1184625,HfBO3,5,Hf1 B1 O3,3.425085,3.425085,3.425085,90,90,90,cubic,Pm-3m,0.0001547,-8.317634202,-2.021541439,1.335505469,FALSE,9.806890138,0,FALSE,40.18038201,,
mp-1017578,HfBRh3,5,Hf1 B1 Rh3,4.09526278,4.09526278,4.09526278,90,90,90,cubic,Pm-3m,1.00E-07,-25.80575055,-0.824459452,0,TRUE,12.04060692,0,FALSE,68.68237792,"{'voigt': 223.425, 'reuss': 223.425, 'vrh': 223.425}","{'voigt': 104.297, 'reuss': 99.356, 'vrh': 101.826}"
mp-1184563,HfBeO3,5,Hf1 Be1 O3,3.438335,3.438335,3.438335,90,90,90,cubic,Pm-3m,2.80E-06,-8.59511636,-2.887019378,0.766009567,FALSE,9.620466886,1.0495,FALSE,40.64850377,,
mp-1017446,HfCdO3,5,Hf1 Cd1 O3,4.098109,4.098109,4.098109,90,90,90,cubic,Pm-3m,0.0032801,-7.822235606,-2.670019159,0.280328005,FALSE,8.1765317,0,FALSE,68.82568085,"{'voigt': 167.615, 'reuss': 167.615, 'vrh': 167.615}","{'voigt': 76.274, 'reuss': 62.57, 'vrh': 69.422}"
mp-1212404,HfCdO3,20,Hf1 Cd1 O3,5.49403226,5.65745168,7.95897904,90,90,90,ortho,Pnma,0,-8.087934109,-2.935717662,0.014629502,FALSE,9.099346705,0,FALSE,247.3827537,,
mp-753534,HfCoO3,20,Hf1 Co1 O3,5.40392,5.432294,7.828693,90.00007878,90.00026957,90.0000423,ortho,Pnma,3.00E-07,-9.212655324,-2.825757571,0.094861512,FALSE,8.249244449,2.5156,FALSE,229.8166237,,
mp-756322,HfCrO3,20,Hf1 Cr1 O3,4.906804,5.329205,9.361863,90,90,90,ortho,Pnma,0,-9.994283242,-3.103459338,0.097289876,FALSE,7.555903212,1.7873,FALSE,244.8067672,,
mp-753790,HfFeO3,20,Hf1 Fe1 O3,5.037946,5.330404,8.7772,90,90,90,ortho,Pnma,15.9995505,-9.562520446,-2.908301796,0.096192584,FALSE,7.95612157,2.3645,TRUE,235.7054523,,
mp-753856,HfFeO3,20,Hf1 Fe1 O3,5.427722,5.511527,7.875288,90,90,90,ortho,Pnma,16.011315,-9.596060445,-2.941841794,0.062652586,FALSE,7.960036505,2.9099,TRUE,235.5895268,,
mp-1016841,HfHgO3,5,Hf1 Hg1 O3,4.122739,4.122739,4.122739,90,90,90,cubic,Pm-3m,0.0166903,-7.389007276,-2.36685846,0.299051158,FALSE,10.12043026,0,FALSE,70.07409939,"{'voigt': 159.867, 'reuss': 159.867, 'vrh': 159.867}","{'voigt': 58.596, 'reuss': 46.035, 'vrh': 52.316}"
mp-1016825,HfMgO3,5,Hf1 Mg1 O3,4.072456,4.072456,4.072456,90,90,90,cubic,Pm-3m,0.00199,-8.324014238,-3.037705826,0.589504466,FALSE,6.165888288,1.1738,FALSE,67.54126685,"{'voigt': 168.944, 'reuss': 168.944, 'vrh': 168.944}","{'voigt': 87.323, 'reuss': 68.189, 'vrh': 77.756}"
mp-754657,HfMnO3,20,Hf1 Mn1 O3,5.41102,5.606515,7.906697,89.99998253,89.999932,90.00065527,ortho,Pnma,2.00E-07,-9.964329765,-3.171712298,0.053202234,FALSE,7.793032029,3.3253,FALSE,239.8651885,,
mp-1178219,HfNiO3,20,Hf1 Ni1 O3,5.338353,4.977777,9.46694726,59.27469895,90,90,mono,P2_1/c,7.9998188,-8.918519201,-2.802277456,0.096843289,FALSE,8.759271576,2.7983,TRUE,216.2532278,,
mp-1184669,HfNpO3,5,Hf1 Np1 O3,4.121025,4.121025,4.121025,90,90,90,cubic,Pm-3m,4.9336937,-10.68232455,-3.132554205,0.359693674,FALSE,10.99694446,0,FALSE,69.98673727,,
mp-1181854,HfPbO3,40,Hf1 Pb1 O3,5.819735,11.475254,9.210148,90,90,90,ortho,Pbam,0.0014846,-8.424724201,-2.721980378,0.277895181,FALSE,9.366655865,2.3889,TRUE,615.0807368,,
mp-22535,HfPbO3,5,Hf1 Pb1 O3,4.155481,4.155481,4.155481,90,90,90,cubic,Pm-3m,0,-8.66198264,-2.959238817,0.040636742,FALSE,10.03604963,2.4149,FALSE,71.75693875,,
mp-22734,HfPbO3,40,Hf1 Pb1 O3,5.83973713,8.16659022,11.68453719,90,90,90,ortho,Pbam,0,-8.693238662,-2.990494839,0.00938072,FALSE,10.33882329,2.7161,TRUE,557.2442267,,
mp-669414,HfPbO3,40,Hf1 Pb1 O3,5.931434,8.303966,11.804147,90,90,90,ortho,Pba2,0.0017692,-8.689749294,-2.987005471,0.012870089,FALSE,9.909159442,2.7795,FALSE,581.4064881,,
mp-755790,HfPbO3,20,Hf1 Pb1 O3,5.79707532,5.79311185,8.19633351,90,90,90,ortho,Pnma,0,-8.687786885,-2.985043062,0.014832497,FALSE,10.46516828,2.7562,FALSE,275.2583349,,
mp-22147,HfPbS3,20,Hf1 Pb1 S3,3.76009552,9.1346626,14.04024182,90,90,90,ortho,Pnma,0,-6.67200106,-1.4550181,0.005059236,FALSE,6.637224694,1.4517,FALSE,482.2430489,,
mp-776083,HfSnO3,10,Hf1 Sn1 O3,7.456477905,7.456477905,7.456477921,42.87209825,42.87209825,42.87209609,trig,R-3,0.0011155,-8.757209739,-2.995080959,0.068686627,FALSE,6.592594464,2.3676,FALSE,173.8966654,"{'voigt': 41.474, 'reuss': 30534.11, 'vrh': 15287.792}","{'voigt': -34645041273.462, 'reuss': 103994777.086, 'vrh': -17270523248.188}"
mp-8725,HfSnS3,20,Hf1 Sn1 S3,3.70225689,9.38317293,14.17625343,90,90,90,ortho,Pnma,0,-20.08704245,-1.28652317,0,TRUE,5.305913745,1.1981,FALSE,492.467686,,
mp-1184597,HfThO3,5,Hf1 Th1 O3,4.120356,4.120356,4.120356,90,90,90,cubic,Pm-3m,0.0307366,-9.60118995,-3.158203891,0.668413525,FALSE,10.88451514,0,FALSE,69.95265823,,
mp-1016819,HfZnO3,5,Hf1 Zn1 O3,4.076656,4.076656,4.076656,90,90,90,cubic,Pm-3m,0.0123883,-7.653380586,-2.441217455,0.687028815,FALSE,7.154294749,0,FALSE,67.75045215,"{'voigt': 162.57, 'reuss': 162.57, 'vrh': 162.57}","{'voigt': 66.299, 'reuss': 44.992, 'vrh': 55.645}"
mp-558934,Hg3ClO,60,Hg3 Cl1 O1,10.93778728,10.93778728,17.41277246,71.24644952,71.24644952,50.02856981,mono,C2/c,0.1308487,-2.141595923,-0.596493168,0.004985985,FALSE,8.720468392,1.2708,TRUE,1492.628055,,
mp-30284,HgAsO3,10,Hg1 As1 O3,4.86693703,4.866937428,7.69342784,90,90,120.000004,trig,P-31m,0,-5.326915277,-1.36217976,0,TRUE,6.80776484,1.2351,TRUE,157.8199817,,
mp-778408,HgBiO3,10,Hg1 Bi1 O3,6.122759118,6.122759118,6.122759109,57.9828502,57.9828502,57.98284921,trig,R-3c,3.96E-05,-4.901532607,-1.092814735,0.037066734,FALSE,9.817158335,0,FALSE,154.7923564,,
mp-27994,HgBrO3,20,Hg1 Br1 O3,9.763821933,9.763821933,8.599402276,72.99835242,72.99835242,26.6274367,mono,C2/c,0,-3.753169432,-0.395069115,0,TRUE,6.226071102,3.2015,FALSE,350.4451666,,
mp-30937,HgClO3,40,Hg1 Cl1 O3,6.499923,8.741893,15.49749485,62.49410105,90,90,mono,P2_1/c,0.0015317,-3.86265093,-0.462232588,0.042710142,FALSE,4.831028275,3.0661,FALSE,781.0536098,,
mp-1017447,HgGeO3,5,Hg1 Ge1 O3,3.82031,3.82031,3.82031,90,90,90,cubic,Pm-3m,0.000284,-5.12807882,-1.172762239,0.375254153,FALSE,9.566805528,0,FALSE,55.75654003,"{'voigt': 172.111, 'reuss': 172.111, 'vrh': 172.111}","{'voigt': 71.86, 'reuss': 57.362, 'vrh': 64.611}"
mp-1224643,HgI3N,20,Hg1 I3 N1,8.939513007,10.869437,11.98558455,90,86.36560152,90,mono,P2_1/c,7.9993218,-2.350400423,0.293597102,0.697944573,FALSE,3.402095707,1.6452,TRUE,1162.266767,,
mp-1016831,HgIrO3,5,Hg1 Ir1 O3,3.966927,3.966927,3.966927,90,90,90,cubic,Pm-3m,0.1733409,-5.407044466,-0.60864662,0.401912078,FALSE,11.72554886,0,FALSE,62.4255857,"{'voigt': 175.489, 'reuss': 175.489, 'vrh': 175.489}","{'voigt': 45.763, 'reuss': 34.978, 'vrh': 40.37}"
mp-1069250,HgNCl3,5,Hg1 N1 Cl3,4.13024,4.13024,8.011948,90,90,90,tet,P4/mmm,2.3196951,-14.68022006,0.710554717,1.120646122,FALSE,3.899469176,0,FALSE,136.6748792,,
mp-1197269,HgNO3,60,Hg1 N1 O3,9.830965,9.830965,9.830965,90,90,90,cubic,P4_132,0.2842922,-5.224763704,-0.526397145,0.221212201,FALSE,5.50716617,0,FALSE,950.1418551,,
mp-542289,HgNO3,40,Hg1 N1 O3,8.31497555,6.286624987,11.72064329,87.06225777,90,90,mono,P2_1,0,-5.445975905,-0.747609346,0,TRUE,5.701203083,2.5687,FALSE,611.8695775,,
mp-1016840,HgOsO3,5,Hg1 Os1 O3,3.954635,3.954635,3.954635,90,90,90,cubic,Pm-3m,0.0022294,-6.127337816,-0.85115332,0.316064325,FALSE,11.78187775,0,FALSE,61.84708244,"{'voigt': 202.882, 'reuss': 202.882, 'vrh': 202.882}","{'voigt': 51.692, 'reuss': 42.76, 'vrh': 47.226}"
mp-27178,HgPS3,10,Hg1 P1 S3,6.319751317,6.324721126,7.330869789,95.80298378,106.0667818,118.927447,tri,P-1,0,-4.112753571,-0.484708718,0,TRUE,4.600070932,1.7549,FALSE,236.6294941,,
mp-7293,HgPSe3,20,Hg1 P1 Se3,6.650608626,6.650608626,14.17399574,85.8581518,85.8581518,120.0961229,mono,C2/c,0,-20.44250398,-0.181591272,0,TRUE,5.79742048,1.2066,FALSE,536.7001893,,
mp-1016877,HgRhO3,5,Hg1 Rh1 O3,3.970706,3.970706,3.970706,90,90,90,cubic,Pm-3m,1.3911544,-5.079618962,-0.576046378,0.409349453,FALSE,9.323166634,0,FALSE,62.60416052,"{'voigt': 148.652, 'reuss': 148.652, 'vrh': 148.652}","{'voigt': 40.831, 'reuss': 38.339, 'vrh': 39.585}"
mp-1016851,HgRuO3,5,Hg1 Ru1 O3,3.944331,3.944331,3.944331,90,90,90,cubic,Pm-3m,0.0051393,-5.712738898,-0.82714738,0.301472753,FALSE,9.46177805,0,FALSE,61.36490393,"{'voigt': 178.37, 'reuss': 178.37, 'vrh': 178.37}","{'voigt': 45.547, 'reuss': 32.466, 'vrh': 39.007}"
mp-1200893,HgSN3,40,Hg1 S1 N3,5.6121,10.303859,15.41939,90,90,90,ortho,Pbca,24,-4.530755635,1.361817332,1.511840934,FALSE,4.092285027,0.8006,FALSE,891.646073,,
mp-10798,HgSeO3,20,Hg1 Se1 O3,9.14933303,4.822833045,7.168443611,88.81265267,90,90,mono,P2_1/c,0,-4.773510802,-1.043617495,0.004895135,FALSE,6.8795658,2.2784,FALSE,316.2447155,,
mp-557224,HgSeO3,20,Hg1 Se1 O3,4.404282462,7.229692947,10.3010115,90,90,103.0170745,mono,P2_1/c,0,-4.777671851,-1.047778545,0.000734086,FALSE,6.807934743,2.6045,TRUE,319.572148,,
mp-9228,HgSeO3,20,Hg1 Se1 O3,5.98911586,6.17326333,8.24957921,90,90,90,ortho,Pnma,0,-4.778405937,-1.048512631,0,TRUE,7.133045456,2.5571,FALSE,305.0066543,,
mp-28318,HgTeO3,20,Hg1 Te1 O3,6.197889605,7.41512815,7.522058656,93.14699386,113.7605508,92.40509283,tri,P-1,0,-4.828632827,-1.169260638,0.014454453,FALSE,7.928795047,2.2362,FALSE,315.1425652,,
mp-29677,Ho3AlC,5,Ho3 Al1 C1,4.83811738,4.83811738,4.83811738,90,90,90,cubic,Pm-3m,2.50E-06,-5.754432952,-0.400977008,0,TRUE,7.826810066,0,FALSE,113.2476509,,
mp-1017577,Ho3AlN,5,Ho3 Al1 N1,4.71952011,4.71952011,4.71952011,90,90,90,cubic,Pm-3m,7.20E-06,-23.99949418,-1.098518033,0,TRUE,8.463332879,0,FALSE,105.1219777,,
mp-10279,Ho3GaC,5,Ho3 Ga1 C1,5.274446,5.274446,5.274446,90,90,90,cubic,Pm-3m,7.20E-06,-4.01324139,1.196718592,1.618684529,FALSE,6.52433774,0,FALSE,146.7339305,"{'voigt': 45.194, 'reuss': 45.194, 'vrh': 45.194}","{'voigt': 29.402, 'reuss': 11.488, 'vrh': 20.445}"
mp-1200030,Ho3GaNi,70,Ho3 Ga1 Ni1,14.6942544,14.6942544,14.6942544,134.0756483,134.0756483,66.96987647,tet,I4/mcm,0.3001475,-4.958407022,-0.438152802,0.015015336,FALSE,8.993339566,0,FALSE,1610.974682,,
mp-10356,Ho3InC,5,Ho3 In1 C1,5.559885,5.559885,5.559885,90,90,90,cubic,Pm-3m,7.15E-05,-3.54337875,1.612796776,1.956069486,FALSE,6.005876709,0,FALSE,171.868951,"{'voigt': 39.666, 'reuss': 39.666, 'vrh': 39.666}","{'voigt': 22.978, 'reuss': 1.601, 'vrh': 12.289}"
mp-31057,Ho3InN,5,Ho3 In1 N1,4.76233324,4.76233324,4.76233324,90,90,90,cubic,Pm-3m,9.00E-07,-6.045183208,-1.067085231,0,TRUE,9.587530653,0,FALSE,108.0088506,,
mp-1206983,Ho3PbC,5,Ho3 Pb1 C1,4.86345615,4.86345615,4.86345615,90,90,90,cubic,Pm-3m,6.50E-06,-5.887032368,-0.540162176,0,TRUE,10.30654978,0,FALSE,115.0363288,,
mp-7114,Ho3SnC,5,Ho3 Sn1 C1,5.57875,5.57875,5.57875,90,90,90,cubic,Pm-3m,0.0027818,-3.925218212,1.481036937,2.000656815,FALSE,5.982377406,0,FALSE,173.6243767,"{'voigt': 41.472, 'reuss': 41.472, 'vrh': 41.472}","{'voigt': 22.631, 'reuss': -3.821, 'vrh': 9.405}"
mp-20978,Ho3TlC,5,Ho3 Tl1 C1,5.579005,5.579005,5.579005,90,90,90,cubic,Pm-3m,0.0008416,-3.444996252,1.633638949,1.928731188,FALSE,6.800822018,0,FALSE,173.6481864,,
mp-1224113,HoAl3Cu,5,Ho1 Al3 Cu1,4.096633731,4.096610026,6.046864735,70.23384906,70.23457676,90.04531084,tet,I4mm,0,-4.410639862,-0.423917137,0,TRUE,5.765852897,0,FALSE,89.11180377,,
mp-4891,HoAlO3,20,Ho1 Al1 O3,5.14522288,5.3135455,7.35118279,90,90,90,ortho,Pnma,0,-8.389978278,-3.752550615,0.015694615,FALSE,7.92887786,5.8359,TRUE,200.9767495,,
mp-1205558,HoB3Mo,10,Ho1 B3 Mo1,3.1542658,5.414664463,6.816896815,78.02809308,90,90,mono,P2_1/m,0,-7.721558506,-0.625257528,0,TRUE,8.552437589,0,FALSE,113.8953932,,
mp-1184546,HoBO3,5,Ho1 B1 O3,3.472834,3.472834,3.472834,90,90,90,cubic,Pm-3m,0.0013728,-7.910179908,-2.685989058,0.871064865,FALSE,8.870328944,2.6416,FALSE,41.88437836,,
mp-752713,HoBO3,30,Ho1 B1 O3,6.505299084,6.505299084,8.78765674,90,90,120.0681046,ortho,Cmcm,0,-8.781244773,-3.557053923,0,TRUE,6.926331102,5.4365,FALSE,321.8398383,,
mp-753056,HoBO3,10,Ho1 B1 O3,3.928095687,3.928095687,8.618539,90,90,116.972639,ortho,Ama2,0,-8.692011009,-3.467820159,0.089233764,FALSE,6.269566791,4.5465,FALSE,118.5179857,,
mp-754409,HoBO3,10,Ho1 B1 O3,6.272718909,6.272718909,6.272719154,46.82821797,46.82821797,46.82822566,trig,R-3c,0,-8.75474245,-3.5305516,0.026502323,FALSE,6.19441526,5.0898,FALSE,119.9558629,,
mp-780393,HoBO3,60,Ho1 B1 O3,7.228018,9.021101114,9.874026961,81.34804878,85.64533365,77.17694495,tri,P-1,0.0039543,-8.722134835,-3.497943985,0.059109938,FALSE,7.190554227,5.0461,FALSE,620.0271111,,
mp-850193,HoBO3,20,Ho1 B1 O3,6.132363,6.389442756,6.391368677,92.76987503,108.2358666,107.5260702,tri,P-1,0,-8.748231234,-3.524040384,0.033013539,FALSE,6.634932318,5.367,TRUE,223.983122,,
mp-3693,HoBPd3,5,Ho1 B1 Pd3,4.312194,4.312194,4.312194,90,90,90,cubic,Pm-3m,8.00E-07,-22.48554046,-0.663728673,0.112943182,FALSE,10.25086659,0,FALSE,80.18532114,"{'voigt': 145.69, 'reuss': 145.69, 'vrh': 145.69}","{'voigt': 28.361, 'reuss': 9.307, 'vrh': 18.834}"
mp-3710,HoBRh3,5,Ho1 B1 Rh3,4.16588183,4.16588183,4.16588183,90,90,90,cubic,Pm-3m,0.6651276,-7.476134166,-0.802135197,0,TRUE,11.12715732,0,FALSE,72.29709375,"{'voigt': 184.167, 'reuss': 184.167, 'vrh': 184.167}","{'voigt': 90.511, 'reuss': 84.45, 'vrh': 87.48}"
mp-1184610,HoBeO3,5,Ho1 Be1 O3,3.562762,3.562762,3.562762,90,90,90,cubic,Pm-3m,0.9781722,-7.525089224,-2.888894155,0.366027888,FALSE,8.149399686,0,FALSE,45.22311094,,
mp-1178162,HoBiO3,10,Ho1 Bi1 O3,6.132121358,6.132121358,6.132121124,58.55441475,58.55441475,58.55441423,trig,R3c,0.0004074,-7.469307687,-2.802988329,0.031655001,FALSE,8.887519482,3.1343,FALSE,157.6584435,,
mp-754300,HoBiO3,10,Ho1 Bi1 O3,6.127323233,6.127323233,6.127324108,58.51664743,58.51664743,58.51664936,trig,R-3,4.34E-05,-7.45128248,-2.784963122,0.049680208,FALSE,8.916443593,2.4719,FALSE,157.1470142,,
mp-770830,HoBiO3,20,Ho1 Bi1 O3,5.790455,6.208609,8.435383,90,90,90,ortho,Pnma,0.0003181,-7.465102548,-2.798783189,0.03586014,FALSE,9.240936566,2.9128,TRUE,303.2576792,,
mp-1223843,HoBiTe3,5,Ho1 Bi1 Te3,10.86945981,10.86945981,10.86945971,23.34107421,23.34107421,23.34107577,trig,R3m,0.0030143,-34.47177827,-0.944720148,0.025305,FALSE,7.099457794,1.0659,FALSE,176.9920674,,
mp-1188609,HoCoO3,20,Ho1 Co1 O3,3.851742,5.685668,12.251152,90,90,90,ortho,Pnma,8.0000063,-7.525784826,-2.210788985,0.420407865,FALSE,6.730410091,0.162,FALSE,268.2968748,,
mp-20570,HoCoO3,20,Ho1 Co1 O3,5.11319813,5.42543382,7.33341945,90,90,90,ortho,Pnma,1.00E-07,-7.946192691,-2.631196851,0,TRUE,8.876127322,0,FALSE,203.4387215,,
mp-756834,HoCrO3,20,Ho1 Cr1 O3,5.21129171,5.52912416,7.5265797,90,90,90,ortho,Pnma,12.0000005,-9.045650314,-3.226728324,0,TRUE,8.113944215,2.4964,FALSE,216.869956,,
mp-1184736,HoCuO3,5,Ho1 Cu1 O3,3.765209,3.765209,3.765209,90,90,90,cubic,Pm-3m,7.70E-06,-6.922426854,-2.214273024,0.252429954,FALSE,8.600762313,0,FALSE,53.37861048,,
mp-1184778,HoErO3,5,Ho1 Er1 O3,4.246395,4.246395,4.246395,90,90,90,cubic,Pm-3m,0.0006509,-7.93530163,-3.133445372,0.908881399,FALSE,8.244907444,1.4474,TRUE,76.57044471,,
mp-770415,HoErO3,30,Ho1 Er1 O3,6.378581955,6.378581955,12.674862,90,90,119.9999995,hex_,P6_3cm,3.00E-05,-8.751239187,-3.949382929,0.092943842,FALSE,8.481566106,3.0794,FALSE,446.6035317,,
mp-19785,HoFeO3,20,Ho1 Fe1 O3,5.25636467,5.60062622,7.60683986,90,90,90,ortho,Pnma,20.0039385,-8.437375858,-2.855059119,0.012266279,FALSE,7.972035381,1.5675,TRUE,223.937255,,
mp-1212057,HoGa3Os,15,Ho1 Ga3 Os1,6.36697945,6.36697945,6.36697945,90,90,90,cubic,Pm-3m,0.311283,-5.464566115,-0.482699123,0,TRUE,10.89187435,0,FALSE,258.1073337,,
mp-1104547,HoGa3Ru,15,Ho1 Ga3 Ru1,6.36198614,6.36198614,6.36198614,90,90,90,cubic,Pm-3m,1.70E-06,-5.174485207,-0.583211192,0,TRUE,9.192647103,0,FALSE,257.500547,,
mp-755416,HoGaO3,20,Ho1 Ga1 O3,5.283774,5.59309,7.634112,90,90,90,ortho,Pnma,0.0004574,-7.631604461,-3.137672761,0.049537561,FALSE,8.321581015,3.6066,TRUE,225.6080379,,
mp-769045,HoGaO3,30,Ho1 Ga1 O3,6.013364412,6.013364682,11.63625179,89.99998584,89.99998602,119.999624,hex_,P6_3cm,0,-7.662299399,-3.168367699,0.018842624,FALSE,7.728073082,2.884,FALSE,364.401749,,
mp-982558,HoGeO3,5,Ho1 Ge1 O3,3.904923,3.904923,3.904923,90,90,90,cubic,Pm-3m,0.0006553,-7.165676248,-2.352758181,0.698465031,FALSE,7.963830435,0,FALSE,59.54392017,"{'voigt': 142.29, 'reuss': 142.29, 'vrh': 142.29}","{'voigt': 65.212, 'reuss': 63.087, 'vrh': 64.149}"
mp-768267,HoInO3,30,Ho1 In1 O3,6.263086282,6.263079561,12.2455948,90.00000413,89.99999706,120.000113,hex_,P6_3cm,0,-7.441156517,-3.001009272,0.009804144,FALSE,7.849682515,1.978,FALSE,415.9933088,,