mp_id,formula,sites,composition,a_edge (angstrom),b_edge (angstrom),c_edge (angstrom),alpha_ang (deg),beta_ang (deg),gamma_ang (deg),crystal_system,space_group,total_magnetisation (bohr),energy_per_atom (eV/atom),formation_energy (eV/atom),energy_above_hull (eV/atom),stable,density (g/cc),band_gap (eV),direct_bandgap,volume (cubic-angstrom),bulk_modulus (GPa),shear_modulus (GPa)
mp-865181,EuGeO3,5,Eu1 Ge1 O3,3.83991258,3.836787962,3.841179293,90.00353639,90.00233111,90.01420426,cubic,Pm-3m,6.807207,-8.551858304,-2.600853747,0.09222758,FALSE,7.998798444,0,FALSE,56.59182513,"{'voigt': 167.47, 'reuss': 167.47, 'vrh': 167.47}","{'voigt': 103.033, 'reuss': 100.586, 'vrh': 101.809}"
mp-581575,EuGeS3,30,Eu1 Ge1 S3,8.41611227,8.485661838,11.77012284,69.18407749,80.70013195,75.42701155,tri,P-1,42.0000004,-6.82402399,-1.358780296,0,TRUE,4.21656938,0,TRUE,758.0085476,,
mp-644246,EuH3Pd,5,Eu1 H3 Pd1,3.78882214,3.79214528,3.79250035,90,90,90,cubic,Pm-3m,6.9417748,-14.96014824,-0.590813538,0,TRUE,7.966230302,0,FALSE,54.48974998,"{'voigt': 86.912, 'reuss': 86.912, 'vrh': 86.912}","{'voigt': 38.111, 'reuss': 38.11, 'vrh': 38.11}"
mp-1078670,EuHO3,10,Eu1 H1 O3,3.765045,5.689731,5.885381477,65.91697234,90,90,mono,P2_1/m,7.983575,-7.440352082,-1.734919808,0.371667368,FALSE,5.798620524,0,FALSE,115.1028136,,
mp-753781,EuHfO3,5,Eu1 Hf1 O3,4.09768332,4.09766316,4.09771369,89.99898543,89.99935178,90.00050728,cubic,Pm-3m,6.9999999,-10.73750292,-3.719666126,0,TRUE,9.133639661,0.4796,TRUE,68.80440725,"{'voigt': 165.391, 'reuss': 165.391, 'vrh': 165.391}","{'voigt': 98.769, 'reuss': 91.295, 'vrh': 95.032}"
mp-1190059,EuHfS3,20,Eu1 Hf1 S3,6.60695663,7.07850207,9.64170674,90,90,90,ortho,Pnma,27.9999917,-23.64051265,-2.085053584,0,TRUE,6.284678757,0.1287,TRUE,450.9171333,,
mp-1184359,EuHgO3,5,Eu1 Hg1 O3,4.240331,4.240331,4.240331,90,90,90,cubic,Pm-3m,6.5805648,-6.493105982,-1.404772589,0.571836683,FALSE,8.723865116,0,FALSE,76.24287715,,
mp-1184304,EuInO3,5,Eu1 In1 O3,4.191291,4.191291,4.191291,90,90,90,cubic,Pm-3m,6.0000798,-7.791177356,-2.212943621,0.506676351,FALSE,7.099259643,0,FALSE,73.62807473,,
mp-1212795,EuInO3,20,Eu1 In1 O3,5.712293,5.996883,8.162569,90,90,90,ortho,Pnma,24.0002801,-8.079665279,-2.501431544,0.218188428,FALSE,7.477451055,0,FALSE,279.6165782,,
mp-1212980,EuInO3,30,Eu1 In1 O3,6.419938368,6.419936872,12.31365353,90.00033456,89.9998285,120.0001507,hex_,P6_3cm,36.0000001,-8.1493065,-2.571072765,0.148547207,FALSE,7.13557929,0,FALSE,439.5198749,,
mp-1184445,EuIrO3,5,Eu1 Ir1 O3,4.010484,4.010484,4.010484,90,90,90,cubic,Pm-3m,6.1412399,-8.687974162,-1.89388834,0.396099717,FALSE,10.0958593,0,FALSE,64.50455212,,
mp-1184309,EuLuO3,5,Eu1 Lu1 O3,4.257594,4.257594,4.257594,90,90,90,cubic,Pm-3m,6.0079449,-9.165762474,-3.235025997,0.549452067,FALSE,8.066880567,0,FALSE,77.17786059,,
mp-1225137,EuMgGa3,5,Eu1 Mg1 Ga3,4.31164196,4.31164196,6.443302586,70.45280835,70.45280835,90,tet,I-4m2,7.0127319,-4.619867374,-0.419293375,0,TRUE,6.065248181,0,FALSE,105.5249246,,
mp-972931,EuMgO3,5,Eu1 Mg1 O3,3.92269,3.92269,3.92269,90,90,90,cubic,Pm-3m,5.0031497,-7.882311952,-2.529818963,0.408090983,FALSE,6.16968361,0,FALSE,60.36037996,,
mp-1099619,EuMnO3,5,Eu1 Mn1 O3,3.876972,3.876972,3.876972,90,90,90,cubic,Pm-3m,9.9954965,-9.462677474,-2.60387543,0.125670771,FALSE,7.263423334,0,FALSE,58.27442453,,
mp-20614,EuMnO3,20,Eu1 Mn1 O3,5.40858695,5.41134345,7.67572013,90,90,90,ortho,Pnma,39.9999999,-9.511573573,-2.652771528,0.076774672,FALSE,7.53652763,0,FALSE,224.6508396,,
mp-1184411,EuMoO3,5,Eu1 Mo1 O3,4.100221,4.100221,4.100221,90,90,90,cubic,Pm-3m,8.9849788,-9.67815512,-2.482626112,0.149660001,FALSE,7.128128082,0,FALSE,68.93214563,,
mp-1078341,EuNbO3,10,Eu1 Nb1 O3,5.709876911,5.706059609,5.706064032,60.57379755,59.97948554,59.9795908,ortho,Imma,13.4203772,-10.19022345,-3.143563456,0,TRUE,7.369784191,0,FALSE,131.9766511,,
mp-755572,EuNbO3,5,Eu1 Nb1 O3,4.063504103,4.063226623,4.062844725,90.01351307,90.03716072,90.05954234,cubic,Pm-3m,7.1246712,-10.16660758,-3.119947585,0.023615871,FALSE,7.249703487,0,FALSE,67.08132537,,
mp-974769,EuNiGe3,5,Eu1 Ni1 Ge3,5.783994395,5.783994395,5.783994395,136.0205306,136.0205306,63.94859619,tet,I4mm,6.8120356,-6.509523508,-0.522057076,0,TRUE,7.730846678,0,FALSE,92.05583106,,
mp-20718,EuNiO3,20,Eu1 Ni1 O3,5.32951865,5.32027611,7.58382395,90,90,90,ortho,Pnma,27.9999987,-8.257220939,-2.074794617,0.136275027,FALSE,7.989517888,0,FALSE,215.0356177,,
mp-977412,EuNiO3,5,Eu1 Ni1 O3,3.792445,3.792445,3.792445,90,90,90,cubic,Pm-3m,6.9728771,-8.185809348,-2.003383026,0.207686618,FALSE,7.874320901,0,FALSE,54.54536766,,
mp-1213363,EuNpO3,20,Eu1 Np1 O3,5.94021533,6.13438638,8.55275324,90,90,90,ortho,Pnma,40,-11.03505147,-3.419096551,0,TRUE,9.312659001,0,FALSE,311.6587018,,
mp-977370,EuOsO3,5,Eu1 Os1 O3,3.988748,3.988748,3.988748,90,90,90,cubic,Pm-3m,5.7933101,-9.311723178,-2.039850706,0.287265964,FALSE,10.20981523,0,FALSE,63.46142187,,
mp-20217,EuPS3,20,Eu1 P1 S3,7.55293914,6.64483084,11.29563194,55.65330523,90,90,mono,P2_1/c,28.0000004,-15.61367748,-1.288086224,0,TRUE,3.961132608,0.844,FALSE,468.0589134,,
mp-20742,EuPSe3,20,Eu1 P1 Se3,7.80256507,6.99196033,11.82313847,55.42852351,90,90,mono,P2_1/c,28.0000005,-19.1985621,-1.107034159,0,TRUE,5.250249069,0.4933,FALSE,531.1167416,,
mp-1184348,EuPbO3,5,Eu1 Pb1 O3,4.284826,4.284826,4.284826,90,90,90,cubic,Pm-3m,6.854555,-7.768094994,-1.999166594,0.424810143,FALSE,8.594428006,0,FALSE,78.66826495,,
mp-1184369,EuPdO3,5,Eu1 Pd1 O3,4.029298,4.029298,4.029298,90,90,90,cubic,Pm-3m,6.3657468,-7.853212588,-1.79083724,0.30797234,FALSE,7.777221409,0,FALSE,65.41662962,,
mp-976258,EuPtO3,5,Eu1 Pt1 O3,4.066685,4.066685,4.066685,90,90,90,cubic,Pm-3m,6.4267308,-7.98383244,-1.74320679,0.411219744,FALSE,9.75383455,0,FALSE,67.25453921,,
mp-976320,EuReO3,5,Eu1 Re1 O3,4.001367,4.001367,4.001367,90,90,90,cubic,Pm-3m,6.6650171,-9.868711476,-2.352689649,0.254660152,FALSE,10.0092508,0,FALSE,64.06563843,,
mp-21076,EuRh3C,5,Eu1 Rh3 C1,4.223061,4.223061,4.223061,90,90,90,cubic,Pm-3m,6.2524081,-8.526183846,-0.204243643,0.060893817,FALSE,10.42184358,0,FALSE,75.31510119,,
mp-19801,EuRhO3,20,Eu1 Rh1 O3,5.3652239,5.75539092,7.72552875,90,90,90,ortho,Pnma,24.0050569,-8.705100889,-2.205840329,0.065275578,FALSE,8.432787516,0,FALSE,238.5563003,,
mp-866036,EuRuO3,5,Eu1 Ru1 O3,3.983635011,3.985097006,3.985313005,89.99935287,90.00580944,90.00635604,cubic,Pm-3m,4.8912378,-9.041606374,-2.16032688,0.218207253,FALSE,7.900983963,0,FALSE,63.26752854,,
mp-976284,EuSbO3,5,Eu1 Sb1 O3,4.218665,4.218665,4.218665,90,90,90,cubic,Pm-3m,6.8473223,-8.157579888,-2.305380654,0.293074376,FALSE,7.115493196,0,FALSE,75.08014792,,
mp-22487,EuScO3,20,Eu1 Sc1 O3,5.600668,5.815825,8.023095,90,90,90,ortho,Pnma,24.0004153,-9.81883769,-3.525944883,0.181007716,FALSE,6.224964772,0,FALSE,261.3323018,,
mp-755177,EuSeO3,10,Eu1 Se1 O3,4.431882117,5.423626961,6.449863472,90.00037742,106.7273964,90.00187766,mono,P2_1/m,13.9999001,-7.976394935,-2.250813653,0,TRUE,6.238942248,0.0866,FALSE,148.4742738,,
mp-1069707,EuSi3Ir,5,Eu1 Si3 Ir1,5.818493814,5.818493814,5.818493814,137.0997678,137.0997678,62.28458223,tet,I4mm,6.6934462,-7.801438646,-0.720938609,0,TRUE,7.888610643,0,FALSE,90.18536198,,
mp-1225162,EuSi3Ni,5,Eu1 Si3 Ni1,5.607886525,5.607886525,5.607886525,136.7929674,136.7929674,62.75674869,tet,I4mm,6.7301044,-6.994201492,-0.525360955,0,TRUE,5.998368144,0,FALSE,81.64154658,,
mp-1225221,EuSi3Ni,5,Eu1 Si3 Ni1,5.719200949,5.719200949,5.719200949,137.7193048,137.7193048,61.33316924,tet,I-4m2,6.8928269,-6.865311164,-0.396470627,0.128890328,FALSE,5.849562113,0,FALSE,83.71841222,,
mp-1068807,EuSi3Rh,5,Eu1 Si3 Rh1,5.770062404,5.770062404,5.770062404,137.1989127,137.1989127,62.13214338,tet,I4mm,6.7430028,-18.52662264,-0.73094161,0,TRUE,6.425854498,0,FALSE,87.63534432,,
mp-866030,EuSiO3,5,Eu1 Si1 O3,3.717735,3.717735,3.717735,90,90,90,cubic,Pm-3m,6.9115957,-9.182717856,-3.071255264,0.25598194,FALSE,7.369525124,0,FALSE,51.38487331,,
mp-862606,EuSnO3,5,Eu1 Sn1 O3,4.07580535,4.0760898,4.07609181,90,90,90,cubic,Pm-3m,6.9237419,-8.37124034,-2.542926983,0.138447412,FALSE,7.814337064,0,FALSE,67.71753422,,
mp-1184447,EuTcO3,5,Eu1 Tc1 O3,3.967972,3.967972,3.967972,90,90,90,cubic,Pm-3m,6.7845308,-9.522178676,-2.423651901,0.146448492,FALSE,7.919622357,0,FALSE,62.47493266,,
mp-1079111,EuTiO3,10,Eu1 Ti1 O3,5.525466335,5.525404238,5.52540684,89.0832408,120.5302153,120.5301943,tet,I4/mcm,13.9952801,-10.16401936,-3.558521974,0,TRUE,6.956660393,0,FALSE,118.3125365,,
mp-22246,EuTiO3,5,Eu1 Ti1 O3,3.9038778,3.90388695,3.9038778,90,90,90,cubic,Pm-3m,6.9721765,-10.15488115,-3.549383762,0.009138211,FALSE,6.916906579,0,FALSE,59.49625946,,
mp-1178346,EuTmO3,20,Eu1 Tm1 O3,6.01765,8.242911,5.804322,90,90,90,ortho,Pnma,24.0001357,-9.45700875,-3.534109468,0.233513262,FALSE,8.510488417,0,FALSE,287.9115136,,
mp-1184353,EuTmO3,5,Eu1 Tm1 O3,4.268535,4.268535,4.268535,90,90,90,cubic,Pm-3m,6.0018311,-9.106493704,-3.183594422,0.584028308,FALSE,7.876204539,0,FALSE,77.77437689,,
mp-1213318,EuUO3,20,Eu1 U1 O3,5.943666,6.174155,8.548967,90,90,90,ortho,Pnma,36.0000002,-10.76483376,-3.48015277,0.019482793,FALSE,9.273182759,0,FALSE,313.7224264,,
mp-1178351,EuVO3,20,Eu1 V1 O3,5.44924128,5.44359745,7.68337572,90,90,90,ortho,Pnma,31.9999993,-9.803838923,-2.960658723,0.029201403,FALSE,7.312098681,0,FALSE,227.9156308,,
mp-756315,EuVO3,5,Eu1 V1 O3,3.846793229,3.851362766,3.846974639,90.03596077,90.11370437,90.03717961,cubic,Pm-3m,7.9999996,-9.789797889,-2.946617689,0.043242436,FALSE,7.310121614,0,FALSE,56.99431798,,
mp-1184400,EuWO3,5,Eu1 W1 O3,4.10016,4.10016,4.10016,90,90,90,cubic,Pm-3m,9.0000361,-10.02116339,-2.403138358,0.235947857,FALSE,9.246005425,0,FALSE,68.92906911,,
mp-1225768,EuZnIn3,5,Eu1 Zn1 In3,6.783495084,6.783495084,6.783495084,139.3317524,139.3317524,58.86935701,tet,I4mm,6.9002566,-4.247107858,-0.282032507,0.023140849,FALSE,7.104926468,0,FALSE,131.3082811,,
mp-1106293,EuZrO3,20,Eu1 Zr1 O3,5.74546581,5.84474033,8.1659234,90.0000538,90.0001131,90.00000107,ortho,Pnma,0,-10.37613,-3.640190887,0,TRUE,7.05316608,0.1866,TRUE,274.217879,,
mp-1178354,EuZrO3,40,Eu1 Zr1 O3,8.367172,8.367172,8.367172,90,90,90,cubic,P2_13,55.9982686,-10.29173705,-3.555797937,0.084392949,FALSE,6.603493936,0.4663,TRUE,585.7820911,,
mp-771055,EuZrO3,5,Eu1 Zr1 O3,4.197333,4.197333,4.197333,90,90,90,cubic,Pm-3m,7.0004074,-10.28281081,-3.5468717,0.093319187,FALSE,6.538823412,0.3877,TRUE,73.94695196,"{'voigt': 154.842, 'reuss': 154.842, 'vrh': 154.842}","{'voigt': 87.585, 'reuss': 79.504, 'vrh': 83.545}"
mp-1189927,EuZrS3,20,Eu1 Zr1 S3,6.5652183,7.15394128,9.6658817,90,90,90,ortho,Pnma,4.2647362,-8.33156139,-2.081383141,0,TRUE,4.965501931,0.1453,TRUE,453.9792657,,
mp-1106192,EuZrSe3,20,Eu1 Zr1 Se3,3.971888,8.913961,14.46718,90,90,90,ortho,Pnma,27.8784398,-22.70759989,-1.86652883,0.024710739,FALSE,6.225299333,0,FALSE,512.2141931,,
mp-1212650,Fe3CoN,5,Fe3 Co1 N1,3.675335,3.675335,3.675335,90,90,90,cubic,Pm-3m,7.2594902,-8.230755656,-0.054404037,0.101364324,FALSE,8.043184855,0,FALSE,49.64674627,,
mp-510381,Fe3NiN,5,Fe3 Ni1 N1,4.290839,4.290839,4.290839,90,90,90,cubic,Pm-3m,10.9903852,-6.121132214,1.784563397,1.937313457,FALSE,5.049622364,0,FALSE,78.99992118,,
mp-567703,Fe3NiN,5,Fe3 Ni1 N1,3.774044,3.774044,3.774044,90,90,90,cubic,Pm-3m,8.0131899,-8.032090492,-0.126394881,0.02635518,FALSE,7.421038441,0,FALSE,53.75524893,"{'voigt': 203.967, 'reuss': 203.967, 'vrh': 203.967}","{'voigt': 89.789, 'reuss': 84.113, 'vrh': 86.951}"
mp-16334,Fe3PdN,5,Fe3 Pd1 N1,3.85021387,3.85019387,3.85026736,90,90,90,cubic,Pm-3m,8.8165258,-7.983002004,-0.197357367,0,TRUE,8.37771315,0,FALSE,57.07663225,,
mp-510382,Fe3PtN,5,Fe3 Pt1 N1,4.690942,4.690942,4.690942,90,90,90,cubic,Pm-3m,11.6663812,-5.978059606,1.985835333,2.237165208,FALSE,6.058691781,0,FALSE,103.2238825,,
mp-579496,Fe3PtN,5,Fe3 Pt1 N1,3.84908392,3.84911315,3.84906827,90,90,90,cubic,Pm-3m,8.7936485,-8.215224814,-0.251329875,0,TRUE,10.96693772,0,FALSE,57.0261001,"{'voigt': 206.727, 'reuss': 206.727, 'vrh': 206.727}","{'voigt': 99.579, 'reuss': 98.05, 'vrh': 98.815}"
mp-580234,Fe3RhN,5,Fe3 Rh1 N1,3.83973055,3.83963097,3.83894589,90,90,90,cubic,Pm-3m,9.5591468,-8.368635934,-0.146106085,0,TRUE,8.345426463,0,FALSE,56.59814871,"{'voigt': 180.818, 'reuss': 180.818, 'vrh': 180.818}","{'voigt': 83.217, 'reuss': 80.978, 'vrh': 82.097}"
mp-1246554,Fe3SbN,10,Fe3 Sb1 N1,5.453965,5.460638927,5.460638927,60.91512315,60.04041537,60.04041537,ortho,Imma,6.7977491,-7.614361763,-0.03889324,0.133949892,FALSE,8.695350163,0,FALSE,115.8422174,,
mp-1212682,Fe3SiNi,20,Fe3 Si1 Ni1,6.109967,6.109967,6.109967,90,90,90,cubic,P2_13,27.4624091,-7.58068774,-0.257584072,0.022208811,FALSE,7.40563994,0,FALSE,228.0954351,,
mp-21850,Fe3SnC,5,Fe3 Sn1 C1,3.891169,3.891169,3.891169,90,90,90,cubic,Pm-3m,0.0624058,-7.66044673,0.069213466,0.070303438,FALSE,8.406158407,0,FALSE,58.91695322,,
mp-1225284,Fe3SnSb,5,Fe3 Sn1 Sb1,4.209408432,4.211204,5.39964513,90,89.97470684,59.98588848,trig,P3m1,5.7419772,-6.59431381,0.115413535,0.163304648,FALSE,8.174349741,0,FALSE,82.88221856,,
mp-1184234,FeAgO3,5,Fe1 Ag1 O3,3.862385,3.862385,3.862385,90,90,90,cubic,Pm-3m,5.4824302,-5.926390778,-0.695022397,0.345864826,FALSE,6.101360079,0,FALSE,57.61912852,,
mp-1184215,FeAsO3,5,Fe1 As1 O3,3.799462,3.799462,3.799462,90,90,90,cubic,Pm-3m,3.6312272,-6.48276029,-0.885954939,0.780765044,FALSE,5.412087244,0,FALSE,54.84869714,,
mp-1199904,FeBO3,40,Fe1 B1 O3,3.149366497,10.364107,12.42698298,90,97.54344784,90,mono,P2_1/c,40.0051741,-8.177080155,-2.178420956,0.091941376,FALSE,3.787766301,1.5176,TRUE,402.110929,,
mp-1274711,FeBO3,20,Fe1 B1 O3,4.998054303,7.387514288,7.387745939,108.3299012,70.59003088,109.4115047,hex_,P6_3/mmc,0,-8.1665428,-2.167883601,0.102478731,FALSE,3.224428722,0.6727,TRUE,236.1817174,,
mp-19097,FeBO3,10,Fe1 B1 O3,5.521964019,5.521963684,5.521963256,49.74109871,49.74109212,49.74110201,trig,R-3c,9.9999998,-8.269021531,-2.270362332,0,TRUE,4.222110401,1.4816,FALSE,90.18607293,,
mp-849295,FeBO3,20,Fe1 B1 O3,4.988757981,8.657854,5.456182502,89.99964314,93.91656595,90.00085421,mono,C2/c,1.40E-06,-8.166369106,-2.167709906,0.102652426,FALSE,3.239089327,0.513,FALSE,235.1127234,,
mp-1069079,FeBiO3,10,Fe1 Bi1 O3,4.879828,5.30529985,5.305304092,90.00001527,90.0000191,90.0000191,tet,P4mm,0,-7.088385497,-1.64759779,0.026811494,FALSE,7.564040948,1.3463,FALSE,137.3487564,,
mp-1181394,FeBiO3,20,Fe1 Bi1 O3,5.633780048,5.553403143,7.876305,90,90,88.12752218,mono,P2_1/m,20.0005435,-6.858557747,-1.41777004,0.256639245,FALSE,8.436434665,0.1276,FALSE,246.2916288,,
mp-1181635,FeBiO3,5,Fe1 Bi1 O3,6.220049514,5.521600696,4.465726156,90.19429886,134.1405417,89.72101115,tet,P4/mmm,4.0846894,-5.012193886,0.428593821,2.103003105,FALSE,4.71954362,0,FALSE,110.064839,,
mp-1181670,FeBiO3,10,Fe1 Bi1 O3,13.32757846,5.901643516,9.528144788,100.2926582,134.3772394,75.19808407,mono,Cc,11.9969572,-5.417101346,0.023686361,1.698095645,FALSE,2.006079857,0.7019,FALSE,517.881486,,
mp-1181856,FeBiO3,5,Fe1 Bi1 O3,8.464880463,5.388093916,5.321518785,122.2098958,142.6878026,47.91917824,mono,Cm,5.0000302,-6.699512562,-1.258724855,0.415684429,FALSE,4.757187854,1.4146,FALSE,109.1938819,,
mp-1182718,FeBiO3,10,Fe1 Bi1 O3,17.05940423,17.05940423,10.74148934,72.14831453,72.14831453,84.92418039,mono,Cc,17.3690791,-3.70158609,1.739201617,3.413610901,FALSE,0.366821176,0,FALSE,2832.201859,,
mp-1193035,FeBiO3,30,Fe1 Bi1 O3,5.611531675,7.944785,9.814267492,113.8758974,106.9121057,90,mono,C2/m,30.0039808,-7.05878573,-1.617998023,0.056411261,FALSE,8.21675768,1.6433,FALSE,379.3144417,,
mp-22949,FeBiO3,10,Fe1 Bi1 O3,5.662175,5.662543744,5.818595242,119.1188074,89.99992081,119.997981,trig,R3m,0,-7.08161758,-1.640829873,0.033579411,FALSE,7.773373897,1.7783,FALSE,133.6500252,,
mp-23501,FeBiO3,10,Fe1 Bi1 O3,5.588111297,5.58810496,5.64785525,60.35063441,119.6493773,119.9996362,trig,R3c,10.0000001,-7.113564488,-1.672776781,0.001632503,FALSE,8.287008783,1.2791,FALSE,125.3662986,,
mp-547069,FeBiO3,10,Fe1 Bi1 O3,3.944449663,3.944449663,7.892021,90,90,90.03138879,cubic,Pm-3m,9.9995794,-6.859884236,-1.419096529,0.255312755,FALSE,8.460920208,0,FALSE,122.7894357,,
mp-548231,FeBiO3,10,Fe1 Bi1 O3,5.498973983,5.498970038,5.498970758,59.71108546,59.71107706,59.71120248,trig,R3,6.000011,-7.053073916,-1.612286209,0.062123075,FALSE,8.894225534,0,FALSE,116.807429,,
mp-551451,FeBiO3,5,Fe1 Bi1 O3,5.430644,5.458528412,5.52404333,66.90638249,67.50512894,65.21539056,tri,P1,5.0000427,-6.677269874,-1.236482167,0.437927117,FALSE,3.935109621,1.6259,FALSE,132.0054227,,
mp-555351,FeBiO3,10,Fe1 Bi1 O3,3.944449663,3.944449663,7.892021,90,90,90.03138879,ortho,Cmcm,10.0016656,-6.859807798,-1.419020091,0.255389193,FALSE,8.460920208,0,FALSE,122.7894357,,
mp-645159,FeBiO3,20,Fe1 Bi1 O3,5.43632513,5.67645136,7.79673188,89.99980781,89.99999455,89.99996887,ortho,Pnma,20.0000004,-7.103591225,-1.662803518,0.011605766,FALSE,8.636020315,1.542,FALSE,240.5996234,,
mp-654759,FeBiO3,5,Fe1 Bi1 O3,5.136741823,5.136741392,5.136741335,72.09140823,72.09139949,72.09140023,trig,R3,5.0000007,-6.52657535,-1.085787643,0.588621641,FALSE,4.354910311,1.1601,FALSE,119.2804838,,
mp-655631,FeBiO3,5,Fe1 Bi1 O3,5.427758962,5.427758962,5.427757968,66.29821601,66.29821601,66.29821889,trig,R3,4.9999957,-6.674919746,-1.234132039,0.440277245,FALSE,4.044418207,1.7789,FALSE,128.437709,,
mp-18969,FeCO3,10,Fe1 C1 O3,5.679365808,5.67936593,5.679360259,48.88741061,48.88740146,48.88743182,trig,R-3c,8.0000006,-8.298319626,-1.789805682,0,TRUE,4.030868222,0,FALSE,95.45334472,,
mp-675126,FeCO3,10,Fe1 C1 O3,6.142323901,5.117571622,5.117571498,60.39162784,60.1037854,60.10378108,mono,Cc,8.0001598,-6.780641645,-0.272127701,1.517677981,FALSE,3.367376833,1.4102,FALSE,114.2610029,,
mp-22334,FeGeO3,20,Fe1 Ge1 O3,6.687314112,6.687314112,5.175052625,81.47574199,81.47574199,84.79373087,mono,C2/c,16.0283091,-7.504117007,-1.916730591,0.012197311,FALSE,5.191813044,1.9617,FALSE,225.7841303,,
mp-1096837,FeGeS3,20,Fe1 Ge1 S3,6.041053343,7.717837071,7.717836921,83.75699699,83.8329352,83.83293161,mono,C2/c,0.0023747,-5.642962374,-0.54133682,0.167047032,FALSE,4.21619845,0.0357,FALSE,353.9585927,,
mp-1080474,FeNCl3,10,Fe1 N1 Cl3,6.843882284,6.843882284,5.564048,90,90,120.0000027,hex_,P6_3/mmc,8,-4.307550664,0.163231123,1.094979542,FALSE,2.592894342,0,FALSE,225.6973966,,
mp-1212990,FeNCl3,10,Fe1 N1 Cl3,5.609413,8.440726743,8.440726743,120.0000058,90,90,hex_,P6_3mc,8,-4.316914687,0.1538671,1.085615519,FALSE,1.690844484,0,FALSE,346.1048654,,
mp-1272388,FeNiO3,10,Fe1 Ni1 O3,5.051717698,5.431569312,5.051735003,62.28753419,59.99917527,89.99929357,trig,R3,7.9991163,-7.099244788,-1.280436607,0.077533964,FALSE,5.330427562,0,FALSE,101.2670638,,
mp-768499,FeNiO3,10,Fe1 Ni1 O3,5.055914764,5.451279583,5.0559,62.37169919,59.99972519,89.99977642,trig,R-3,4.0000009,-7.094728297,-1.275920116,0.082050455,FALSE,5.296360279,0.3842,FALSE,101.9184345,,
mp-1232490,FePS3,20,Fe1 P1 S3,5.860704072,7.918623163,10.11814108,68.74976132,77.18836502,75.12379224,tri,P-1,3.20E-06,-5.815838687,-0.555723999,0.12681538,FALSE,2.903742689,0.4284,FALSE,418.6342029,,
mp-2931287,FePS3,20,Fe1 P1 S3,5.874893187,10.33324698,7.677210003,89.94263304,105.9053738,89.999651,mono,P2_1/m,0,-5.816602746,-0.556488058,0.126051321,FALSE,2.712103147,0.5064,FALSE,448.215256,"{'voigt': 32.19, 'reuss': -251.973, 'vrh': -109.892}","{'voigt': 22.035, 'reuss': -53.466, 'vrh': -15.716}"
mp-5864,FePS3,20,Fe1 P1 S3,5.858327855,10.36093628,7.085563764,90.02324656,106.0406908,89.98081302,mono,C2/m,4.00E-07,-5.810363875,-0.550249187,0.132290192,FALSE,2.9409844,0.206,FALSE,413.3330344,,
mp-2928,FePSe3,10,Fe1 P1 Se3,7.276442602,7.276442602,7.276442369,50.13797486,50.13797486,50.13798027,trig,R-3,0.0003489,-5.289859963,-0.415214129,0.111388733,FALSE,5.144585785,0.0015,FALSE,208.9631557,"{'voigt': 220.757, 'reuss': -1376181.553, 'vrh': -687980.398}","{'voigt': 21447114937326.88, 'reuss': -9607868.676, 'vrh': 10723552664729.102}"
mp-973579,FePbO3,5,Fe1 Pb1 O3,3.947544,3.947544,3.947544,90,90,90,cubic,Pm-3m,4.0622893,-6.761996208,-1.356685949,0.198250186,FALSE,8.396317843,0,FALSE,61.51498724,,