mp_id,composition,a_edge (angstrom),b_edge (angstrom),c_edge (angstrom),alpha_ang (deg),beta_ang (deg),gamma_ang (deg),crystal_system,space_group,formation_energy (eV/atom),energy_above_hull (eV/atom),band_gap (eV),A_site,B_site,X_site
mp-1013548,Ca3 Sb1 N1,4.86018189,4.86018189,4.86018189,90.0,90.0,90.0,cubic,Pm-3m,-1.202770445,0.0,0.4075,Sb,N,Ca
mp-31157,Ca3 Sb1 N1,5.757405,5.757405,5.757405,90.0,90.0,90.0,cubic,Pm-3m,0.480472511,1.683242956,0.0,Sb,N,Ca
mp-1013550,Ca3 Sb1 P1,5.38244377,5.38244377,5.38244377,90.0,90.0,90.0,cubic,Pm-3m,-1.021370641,0.0,0.6583,Sb,P,Ca
mp-1096764,Ca3 Sb1 P1,5.736281,5.736281,5.736281,90.0,90.0,90.0,cubic,Pm-3m,-0.316978881,0.70439176,0.0,Sb,P,Ca
mp-11649,Ca3 Si1 O1,6.65263113,6.66897385,9.43018274,90.0,90.0,90.0,ortho,Pnma,-1.597976148,0.000711516,0.5122,Si,O,Ca
mp-1183521,Ca3 Si1 O1,6.65098862,6.67173224,9.40885366,90.0,90.0,90.0,ortho,Pnma,-1.598432342,0.000255322,0.07,Si,O,Ca
mp-1205330,Ca3 Si1 O1,6.65683,6.65683,6.65683,120.0643489,119.8736433,90.05378801,ortho,Imma,-1.598687664,0.0,0.0566,Si,O,Ca
mp-637179,Ca3 Sn1 N1,5.896994,5.896994,5.896994,90.0,90.0,90.0,cubic,Pm-3m,0.67164163,1.465755379,0.0,Sn,N,Ca
mp-29241,Ca3 Sn1 O1,4.82648645,4.82648645,4.82648645,90.0,90.0,90.0,cubic,Pm-3m,-1.76736699,0.0,0.0,Sn,O,Ca
mp-10554,Ca3 Tl1 N1,4.953824,4.953824,4.953824,90.0,90.0,90.0,cubic,Pm-3m,-0.759601408,0.023510039,0.0,Tl,N,Ca
mp-1226791,Ca1 Al3 Au1,4.167006665,4.167007675,6.503251026,71.22534505,71.22534513,90.09656241,tet,I4mm,-0.55026575,0.0,0.0,Ca,Au,Al
mp-1084760,Ca1 B1 O3,5.479484,3.673378,6.634696256,86.49954592,90.0,90.0,mono,P2_1/m,-2.817581744,0.100919638,0.3587,Ca,B,O
mp-1189809,Ca1 B1 O3,9.439899,3.680898,8.194717935,69.00875662,90.0,90.0,mono,P2_1/c,-2.81588509,0.102616292,0.5519,Ca,B,O
mp-984628,Ca1 B1 O3,3.47968,3.47968,3.47968,90.0,90.0,90.0,cubic,Pm-3m,-2.020940407,0.897560975,0.0,Ca,B,O
mp-1206909,Ca1 B1 Pd3,4.27841036,4.27843393,4.27842164,90.0,90.0,90.0,cubic,Pm-3m,-0.553911794,0.0,0.0,Ca,B,Pd
mp-984632,Ca1 Be1 O3,3.614908,3.614908,3.614908,90.0,90.0,90.0,cubic,Pm-3m,-2.23146697,0.333611443,0.0,Ca,Be,O
mp-1178493,Ca1 Bi1 O3,5.832066,6.037298,8.734338,90.0,90.0,90.0,ortho,Pnma,-2.164671708,0.099551024,0.0,Ca,Bi,O
mp-1378965,Ca1 Bi1 O3,5.76338163,6.0323361,8.3243734,90.0,90.0,90.0,ortho,Pnma,-2.238927775,0.025294956,0.0,Ca,Bi,O
mp-755893,Ca1 Bi1 O3,5.75831054,6.02554523,8.330347024,90.0,90.10598141,90.0,mono,P2_1/c,-2.264222731,0.0,0.6653,Ca,Bi,O
mp-867749,Ca1 Bi1 O3,6.166580149,6.166580149,6.166580017,57.5740068,57.5740068,57.57401102,trig,R-3,-2.243382312,0.020840419,0.0804,Ca,Bi,O
mp-1079918,Ca1 C1 O3,3.833378826,5.029813997,6.52339007,95.89062447,106.0612031,90.33384171,tri,P-1,-2.681321205,0.006686684,4.8573,Ca,C,O
mp-1188902,Ca1 C1 O3,6.206725723,6.436406303,6.431665879,93.83778905,106.7186654,106.1750762,tri,P-1,-2.685277056,0.002730833,5.0381,Ca,C,O
mp-1194399,Ca1 C1 O3,7.12538187,7.12538187,9.413902439,68.34036705,68.34036705,60.54706716,mono,C2/c,-2.680708997,0.007298892,4.9216,Ca,C,O
mp-1197230,Ca1 C1 O3,6.393639,7.697011568,12.74171304,93.77095471,98.92079031,106.2213743,tri,P-1,-2.663609681,0.024398208,4.9254,Ca,C,O
mp-1197939,Ca1 C1 O3,7.228084,7.26345356,26.00444062,82.20230341,82.35132484,60.19834816,tri,P-1,-2.679851767,0.008156122,4.9564,Ca,C,O
mp-2717324,Ca1 C1 O3,4.997993422,4.997993422,8.595774498,89.51617991,89.51617991,59.76450852,trig,P321,-2.679521385,0.008486503,4.9875,Ca,C,O
mp-3205,Ca1 C1 O3,4.343253,4.961191,5.140678,90.0,90.0,90.0,ortho,Pmmn,-2.519142415,0.168865474,4.2755,Ca,C,O
mp-3953,Ca1 C1 O3,6.358447833,6.358447249,6.35844589,46.37140907,46.3714226,46.37141314,trig,R-3c,-2.688007889,0.0,4.9995,Ca,C,O
mp-4626,Ca1 C1 O3,5.016055,5.812071,8.034798,90.0,90.0,90.0,ortho,Pnma,-2.663653839,0.02435405,4.1871,Ca,C,O
mp-548403,Ca1 C1 O3,5.41857184,5.41857184,3.78627,90.0,90.0,109.5661688,ortho,C222_1,-2.378155277,0.309852612,5.7242,Ca,C,O
mp-553939,Ca1 C1 O3,4.43217633,6.59314591,8.51392996,90.0,90.0,90.0,ortho,Pnma,-2.675317959,0.01268993,4.7183,Ca,C,O
mp-556235,Ca1 C1 O3,5.02851577,6.341896957,8.034803837,72.94075117,90.0,90.0,mono,P2_1/c,-2.687140196,0.000867693,5.0106,Ca,C,O
mp-560265,Ca1 C1 O3,7.283349892,7.283349892,25.567819,90.0,90.0,119.999999,hex_,P6_522,-2.679939574,0.008068315,4.9434,Ca,C,O
mp-561412,Ca1 C1 O3,5.040837189,5.040837189,8.744577876,89.3545317,89.3545317,59.59667762,mono,C2,-2.680810469,0.007197419,4.9726,Ca,C,O
mp-641635,Ca1 C1 O3,3.633017,7.76828,10.858715,90.0,90.0,90.0,ortho,Pnma,-1.310235066,1.377772823,0.0064,Ca,C,O
mp-696740,Ca1 C1 O3,4.917823352,4.917823352,5.473712678,71.71716616,71.71716616,79.70982189,mono,C2/c,-0.815301109,1.87270678,1.5162,Ca,C,O
mp-756365,Ca1 Ce1 O3,5.840719,6.06215,8.512602,90.0,90.0,90.0,ortho,Pnma,-3.619638708,0.059074767,2.2817,Ca,Ce,O
mp-1099934,Ca1 Co1 O3,3.76349,3.76349,3.76349,90.0,90.0,90.0,cubic,Pm-3m,-1.881145529,0.160332857,0.0,Ca,Co,O
mp-1368304,Ca1 Co1 O3,5.300495,5.412624,7.48887,90.0,90.0,90.0,ortho,Pnma,-1.976297139,0.065181247,0.0,Ca,Co,O
mp-1399298,Ca1 Co1 O3,3.176926348,3.176926348,9.795631959,84.06621218,84.06621218,89.9562329,mono,Cm,-1.558359633,0.483118753,0.0,Ca,Co,O
mp-20772,Ca1 Cr1 O3,5.333433,5.472255,7.54876,90.00058264,90.00018461,90.0004452,ortho,Pnma,-2.61827998,0.065114058,0.4069,Ca,Cr,O
mp-1099873,Ca1 Cu1 O3,3.803636,3.803636,3.803636,90.0,90.0,90.0,cubic,Pm-3m,-1.700447861,0.162602423,0.0,Ca,Cu,O
mp-1001571,Ca1 Fe1 O3,3.83661,3.83661,3.83661,90.0,90.0,90.0,cubic,Pm-3m,-2.176371779,0.052147252,0.0,Ca,Fe,O
mp-1272846,Ca1 Fe1 O3,5.370985061,5.502777005,7.669601041,89.99956389,88.82901138,90.00498281,mono,P2_1/c,-2.223898614,0.004620417,0.0607,Ca,Fe,O
mp-1278982,Ca1 Fe1 O3,5.434047024,6.655142497,6.655120537,70.83781826,90.0010461,90.00102779,ortho,Pmma,-2.175628309,0.052890722,0.0,Ca,Fe,O
mp-19115,Ca1 Fe1 O3,5.29247074,5.32339252,7.48776665,90.00018674,89.99978053,89.99997506,ortho,Pnma,-2.228519031,0.0,0.0,Ca,Fe,O
mp-1227072,Ca1 Ga3 Pt1,6.188460025,6.188460025,6.188460025,140.1066656,140.1066656,57.69137786,tet,I4mm,-0.654726746,0.0,0.0,Ca,Pt,Ga
mp-567485,Ca1 Ga1 Au3,9.193679421,9.19358456,9.19355357,89.99964078,90.00072392,89.99886314,cubic,Pa-3,-0.622069514,0.0,0.0,Ca,Ga,Au
mp-1016884,Ca1 Ge1 O3,3.783237,3.783237,3.783237,90.0,90.0,90.0,cubic,Pm-3m,-2.579209944,0.170772001,0.5017,Ca,Ge,O
mp-17761,Ca1 Ge1 O3,7.314616387,7.557449301,8.147430831,103.4819701,94.72958118,90.10958549,tri,P-1,-2.749981945,0.0,3.4813,Ca,Ge,O
mp-554549,Ca1 Ge1 O3,10.79928468,10.79925874,10.79935735,109.1442465,109.1441852,110.1265634,tet,I4_1/a,-2.735575464,0.014406482,2.6614,Ca,Ge,O
mp-776074,Ca1 Ge1 O3,7.013544285,7.013544285,10.99971611,71.9917261,71.9917261,60.20347937,mono,C2/c,-2.719910516,0.030071429,3.4135,Ca,Ge,O
mp-776086,Ca1 Ge1 O3,6.894019,6.950974516,9.566735408,69.97294637,84.05837557,76.43688648,tri,P-1,-2.729070418,0.020911528,3.58,Ca,Ge,O
mp-8130,Ca1 Ge1 O3,5.33181,5.374453,7.552712,90.0,90.0,90.0,ortho,Pnma,-2.64260604,0.107375906,2.0287,Ca,Ge,O
mp-1207169,Ca1 H3 Pd1,3.70671619,3.70671619,3.70671619,90.0,90.0,90.0,cubic,Pm-3m,-0.569283975,0.0,0.0,Ca,Pd,H
mp-1016873,Ca1 Hf1 O3,4.06701021,4.06701021,4.06701021,90.0,90.0,90.0,cubic,Pm-3m,-3.660851149,0.160086914,3.6612,Ca,Hf,O
mp-754853,Ca1 Hf1 O3,5.54646636,5.72177289,7.94978423,90.0,90.0,90.0,ortho,Pnma,-3.820938063,0.0,4.4855,Ca,Hf,O
mp-1190098,Ca1 Hf1 S3,6.560269,7.017853,9.598232,90.0,90.0,90.0,ortho,Pnma,-2.020915121,0.037140438,1.5238,Ca,Hf,S
mp-1183570,Ca1 Hg1 O3,4.190761,4.190761,4.190761,90.0,90.0,90.0,cubic,Pm-3m,-1.21200197,0.462410947,0.0,Ca,Hg,O
mp-1183539,Ca1 Ho1 O3,4.311328,4.311328,4.311328,90.0,90.0,90.0,cubic,Pm-3m,-2.895609852,0.441341795,0.0,Ca,Ho,O
mp-28534,Ca1 In1 Br3,4.26679345,7.372794095,10.88832447,90.0,90.0,106.8196805,ortho,Cmcm,-1.82461755,0.0,3.136,Ca,In,Br
mp-1206105,Ca1 In1 I3,7.911487531,7.911487531,11.725476,90.0,90.0,146.0575064,ortho,Cmcm,-1.376304647,0.021310372,2.7835,Ca,In,I
mp-1183543,Ca1 In1 O3,4.162759,4.162759,4.162759,90.0,90.0,90.0,cubic,Pm-3m,-1.978930112,0.357897249,0.0,Ca,In,O
mp-1016872,Ca1 Ir1 O3,3.953475,3.953475,3.953475,90.0,90.0,90.0,cubic,Pm-3m,-1.795396683,0.306552834,0.0,Ca,Ir,O
mp-1079054,Ca1 Ir1 O3,6.542983356,6.542983356,5.591699,90.0,90.0,147.4675195,ortho,Cmcm,-1.778613245,0.323336272,0.0,Ca,Ir,O
mp-20198,Ca1 Ir1 O3,5.585373796,5.585373796,7.49632,90.0,90.0,151.0825096,ortho,Cmcm,-1.448002058,0.653947459,0.0,Ca,Ir,O
mp-4243,Ca1 Ir1 O3,3.182001621,5.150852811,7.32723054,89.99995359,89.99999425,107.9952983,ortho,Cmcm,-2.101949517,0.0,0.0,Ca,Ir,O
mp-555735,Ca1 Ir1 O3,5.298261924,5.64499097,7.646285572,89.99907159,90.00427439,89.99947027,ortho,Pnma,-2.077454298,0.024495219,0.0,Ca,Ir,O
mp-1183562,Ca1 La1 O3,4.504726,4.504726,4.504726,90.0,90.0,90.0,cubic,Pm-3m,-2.667460736,0.593675648,0.0,Ca,La,O
mp-1183532,Ca1 Mg1 O3,3.945178,3.945178,3.945178,90.0,90.0,90.0,cubic,Pm-3m,-2.228589692,0.310670068,0.0,Ca,Mg,O
mp-1017467,Ca1 Mn1 O3,3.801716,3.801716,3.801716,90.0,90.0,90.0,cubic,Pm-3m,-2.418963381,0.116549627,0.0,Ca,Mn,O
mp-1188497,Ca1 Mn1 O3,5.390920286,5.390920286,9.217627,90.0,90.0,120.0000035,hex_,P6_3/mmc,-2.415764464,0.119748544,0.0,Ca,Mn,O
mp-19201,Ca1 Mn1 O3,5.333444,5.398953,7.571465,90.0,90.0,90.0,ortho,Pnma,-2.500438064,0.035074944,0.4686,Ca,Mn,O
mp-989401,Ca1 Mo1 N3,3.535271,4.295757,8.841433,90.0,90.0,90.0,ortho,Pmm2,-0.745383129,0.046883455,0.0,Ca,Mo,N
mp-989635,Ca1 Mo1 N3,3.704049496,6.379600389,6.404047547,104.0936233,106.8098229,90.00000429,mono,C2/m,-0.792266584,0.0,0.8726,Ca,Mo,N
mp-989649,Ca1 Mo1 N3,3.581524,4.403808,10.17818471,79.05024373,90.0,90.0,mono,P2/m,-0.76549741,0.026769174,0.0,Ca,Mo,N
mp-1045305,Ca1 Mo1 O3,5.504775,5.730315556,7.986219259,89.80294805,89.89011788,89.27278409,tri,P-1,-2.609682927,0.00969481,1.1411,Ca,Mo,O
mp-19012,Ca1 Mo1 O3,5.42516888,5.631893148,7.807307135,89.99840329,90.0,90.0,ortho,Pnma,-2.613015464,0.006362273,1.1316,Ca,Mo,O
mp-607467,Ca1 Mo1 O3,5.526326,5.750526,7.915666603,89.38257035,90.0,90.0,mono,P2_1/c,-2.619377736,0.0,1.105,Ca,Mo,O
mp-1106358,Ca1 N1 Cl3,7.547444,7.846647,9.042313,90.0,90.0,90.0,ortho,Pnma,-0.859019364,0.729361278,1.4827,Ca,N,Cl
mp-4957,Ca1 Nb1 O3,5.558866,5.716317,7.983121,90.0,90.0,90.0,ortho,Pnma,-3.157008141,0.058931001,0.0,Ca,Nb,O
mp-1207078,Ca1 Ni1 H3,3.50426521,3.50426521,3.50426521,90.0,90.0,90.0,cubic,Pm-3m,-0.561134515,0.0,0.0,Ca,Ni,H
mp-1368210,Ca1 Ni1 O3,5.366558,5.410364,7.553309,90.0,90.0,90.0,ortho,Pnma,-1.769627474,0.055805265,0.0,Ca,Ni,O
mp-754103,Ca1 Ni1 O3,4.788972,5.195016148,5.195016,60.00000094,90.0,90.0,hex_,P6_3mc,-1.752755917,0.072676821,1.2293,Ca,Ni,O
mp-1016900,Ca1 Os1 O3,3.952163,3.952163,3.952163,90.0,90.0,90.0,cubic,Pm-3m,-1.976540853,0.256620676,0.0,Ca,Os,O
mp-1213970,Ca1 Os1 O3,5.389272,5.638784,7.759873,90.0,90.0,90.0,ortho,Pnma,-2.145854219,0.08730731,0.0,Ca,Os,O
mp-9789,Ca1 P1 S3,6.579950775,7.32515142,9.213030585,90.0,92.03948297,90.0,mono,P2_1/c,-1.23638502,0.0,3.0848,Ca,P,S
mp-11007,Ca1 P1 Se3,6.909170598,7.58328821,9.685920495,90.0,92.02960714,90.0,mono,P2_1/c,-1.051984898,0.0,2.1335,Ca,P,Se
mp-20079,Ca1 Pb1 O3,5.67798819,5.92801194,8.17824295,90.0,90.0,90.0,ortho,Pnma,-2.173213993,0.002454473,0.9332,Ca,Pb,O
mp-12572,Ca1 Pd3 C1,4.281632,4.281632,4.281632,90.0,90.0,90.0,cubic,Pm-3m,-0.193543707,0.230974914,0.0,Ca,C,Pd
mp-756708,Ca1 Pr1 O3,6.1052,6.322415,8.446265,90.0,90.0,90.0,ortho,Pnma,-3.012427108,0.175380001,0.0195,Ca,Pr,O
mp-4784,Ca1 Pt1 O3,3.149575091,5.196789837,7.36890555,89.99999908,90.0000026,107.6372847,ortho,Cmcm,-1.991501694,0.010547282,1.2953,Ca,Pt,O
mp-989606,Ca1 Re1 N3,7.343440263,7.343440263,6.214030245,75.07436504,75.07436504,83.70051548,mono,C2/c,-0.735113235,0.0,1.8813,Ca,Re,N
mp-1016833,Ca1 Rh1 O3,3.954209,3.954209,3.954209,90.0,90.0,90.0,cubic,Pm-3m,-1.835723821,0.257332476,0.0,Ca,Rh,O
mp-1078659,Ca1 Rh1 O3,3.113141821,5.142154487,7.29758608,90.00054491,90.00018984,107.6181484,ortho,Cmcm,-2.093056297,0.0,0.0,Ca,Rh,O
mp-1181917,Ca1 Rh1 O3,5.30813379,5.58872343,7.62858879,90.0,90.0,90.0,ortho,Pnma,-2.068029812,0.025026485,0.0,Ca,Rh,O
mp-1193602,Ca1 Rh1 O3,3.1331254,8.874790776,12.45363577,104.1440927,90.0,90.0,mono,P2_1/m,-2.087925934,0.005130363,0.0,Ca,Rh,O
mp-1016835,Ca1 Ru1 O3,3.929544,3.929544,3.929544,90.0,90.0,90.0,cubic,Pm-3m,-2.061455217,0.165233398,0.0,Ca,Ru,O
mp-20947,Ca1 Ru1 O3,5.35225118,5.54761917,7.67012603,90.0,90.0,90.0,ortho,Pnma,-2.226688614,0.0,0.0,Ca,Ru,O
mp-1340624,Ca1 Sb1 O3,8.156452,5.723962,5.924502994,89.74867931,90.0,90.0,mono,P2_1/m,-2.436817919,0.110777845,0.0,Ca,Sb,O
mp-1377563,Ca1 Sb1 O3,5.682461,5.900124,8.164977,90.0,90.0,90.0,ortho,Pnma,-2.428515235,0.119080529,0.0,Ca,Sb,O
mp-1183534,Ca1 Sc1 O3,4.084749,4.084749,4.084749,90.0,90.0,90.0,cubic,Pm-3m,-3.070074366,0.240475434,0.0,Ca,Sc,O
mp-557997,Ca1 Se1 O3,6.393451796,6.694465492,6.80623043,90.0,90.0,102.6581409,mono,P2_1/c,-2.306927036,0.0,4.2602,Ca,Se,O
mp-754140,Ca1 Se1 O3,5.38834087,6.42879274,8.34205588,90.0,90.0,90.0,ortho,Pnma,-2.285101091,0.021825945,4.2625,Ca,Se,O
mp-1068653,Ca1 Si3 Ir1,5.762805691,5.762805691,5.762805691,137.3753047,137.3753047,61.8611082,tet,I4mm,-0.634010672,0.0,0.0,Ca,Ir,Si
mp-1069604,Ca1 Si3 Pt1,5.759354076,5.759354076,5.759354076,136.9076574,136.9076574,62.58016051,tet,I4mm,-0.684421231,0.0,0.0,Ca,Pt,Si
mp-1181886,Ca1 Si1 O3,6.251087412,6.251087412,6.251087412,109.4712206,109.4712206,109.4712206,cubic,Im-3,-3.204301662,0.243746552,3.5566,Ca,Si,O
mp-17552,Ca1 Si1 O3,6.909451753,6.909451753,10.61770469,71.70554429,71.70554429,60.25371636,mono,C2/c,-3.427720254,0.020327961,4.7336,Ca,Si,O
mp-3382,Ca1 Si1 O3,5.092994,5.092994,3.624191,90.0,90.0,90.0,tet,P4/mbm,-3.204318187,0.243730028,3.5146,Ca,Si,O
mp-3387,Ca1 Si1 O3,5.115179346,5.115179346,5.115179346,120.4727606,120.4727606,89.18308661,tet,I4/mcm,-3.206733513,0.241314702,3.6891,Ca,Si,O
mp-4356,Ca1 Si1 O3,6.250552208,6.250552208,6.250552208,109.4712206,109.4712206,109.4712206,cubic,Im-3,-3.20434334,0.243704875,3.5299,Ca,Si,O
mp-4428,Ca1 Si1 O3,6.740481,6.786039015,9.41212948,69.27390832,83.66219587,75.81084709,tri,P-1,-3.425096944,0.022951271,4.7337,Ca,Si,O
mp-4429,Ca1 Si1 O3,7.084383563,7.325270901,7.933160089,103.3979812,95.28069284,90.04923166,tri,P-1,-3.448048215,0.0,4.8413,Ca,Si,O
mp-4853,Ca1 Si1 O3,6.249192301,6.249192301,6.249192301,109.4034919,109.4034919,109.6067632,tet,I4/mmm,-3.204323607,0.243724608,3.7242,Ca,Si,O
mp-5096,Ca1 Si1 O3,5.098644724,5.098644724,5.098644724,119.929382,119.6868353,90.33281573,ortho,Imma,-3.206924892,0.241123323,3.6753,Ca,Si,O
mp-560885,Ca1 Si1 O3,5.101694,5.115749,7.206447,90.0,90.0,90.0,ortho,Pnma,-3.206805305,0.241242909,3.7183,Ca,Si,O
mp-561086,Ca1 Si1 O3,6.917114322,6.917114322,19.79627122,89.67195844,89.67195844,120.1103671,mono,C2/c,-3.427817504,0.020230711,4.708,Ca,Si,O
mp-5733,Ca1 Si1 O3,7.32539354,7.084213615,15.43457976,84.53615567,90.0,90.0,mono,P2_1/c,-3.448033939,1.43e-05,5.1355,Ca,Si,O
mp-5893,Ca1 Si1 O3,3.607964,3.607964,3.607964,90.0,90.0,90.0,cubic,Pm-3m,-3.203830397,0.244217818,3.4579,Ca,Si,O
mp-649676,Ca1 Si1 O3,9.57996,8.363182,14.75996888,78.28884122,90.0,90.0,mono,P2_1/c,-3.097686814,0.350361401,3.0437,Ca,Si,O
mp-1182670,Ca1 Sn1 O3,13.06997291,9.534047113,6.457878441,138.0015188,160.9388728,42.29965163,tri,P-1,-1.607678445,1.086876602,0.7363,Ca,Sn,O
mp-4190,Ca1 Sn1 O3,6.015841627,6.015841561,6.015841484,54.58886767,54.58886888,54.5888649,trig,R-3,-2.679684276,0.014870771,2.9379,Ca,Sn,O
mp-4438,Ca1 Sn1 O3,5.52398931,5.6962779,7.90708393,90.0,90.0,90.0,ortho,Pnma,-2.694555047,0.0,2.3301,Ca,Sn,O
mp-546910,Ca1 Sn1 O3,4.349933,4.349933,4.349933,90.0,90.0,90.0,cubic,Pm-3m,-1.244784598,1.449770449,0.0,Ca,Sn,O
mp-7986,Ca1 Sn1 O3,4.066424,4.066424,4.066424,90.0,90.0,90.0,cubic,Pm-3m,-2.484464594,0.210090453,1.3905,Ca,Sn,O
mp-1054609,Ca1 Sn1 S3,6.837030789,6.837031,10.36528592,70.74310149,70.74310098,59.99999414,trig,R-3m,-1.017936428,0.369143225,0.0,Ca,Sn,S
mp-1100323,Ca1 Sn1 S3,6.87389998,6.87389998,12.252586,90.0,90.0,119.9999998,hex_,P6_3/mmc,-0.933638789,0.453440865,0.0,Ca,Sn,S
mp-1100325,Ca1 Sn1 S3,4.676422,4.676422,6.142467,90.0,90.0,90.0,tet,P4mm,-1.1619395,0.225140153,0.0,Ca,Sn,S
mp-1100328,Ca1 Sn1 S3,7.724498,7.747260026,7.747260026,120.0000002,90.0,90.0,hex_,P-6m2,-1.159516498,0.227563155,0.0001,Ca,Sn,S
mp-1100329,Ca1 Sn1 S3,3.957213051,7.731143548,8.111719,90.0,90.0,104.8285044,ortho,Cmcm,-1.226241278,0.160838375,0.111,Ca,Sn,S
mp-1100330,Ca1 Sn1 S3,9.313431,9.605147245,10.34168933,103.555434,96.07033638,90.11763806,tri,P-1,-1.278108417,0.108971237,1.7213,Ca,Sn,S
mp-1100334,Ca1 Sn1 S3,3.922771,5.821185788,5.821185788,91.80996881,90.0,90.0,ortho,Amm2,-0.911801536,0.475278117,0.0,Ca,Sn,S
mp-1100335,Ca1 Sn1 S3,8.607266,8.745713549,11.84583591,69.62833062,83.86262972,76.54816311,tri,P-1,-1.296916411,0.090163242,1.8767,Ca,Sn,S
mp-1100340,Ca1 Sn1 S3,5.364158,6.700657,14.315411,90.0,90.0,90.0,ortho,P2_12_12_1,-1.270780014,0.116299639,1.584,Ca,Sn,S
mp-1100343,Ca1 Sn1 S3,10.024154,5.023836,10.01710818,89.1707327,90.0,90.0,mono,Pm,-1.085115182,0.301964471,0.0,Ca,Sn,S
mp-1100344,Ca1 Sn1 S3,6.805764419,6.805764419,25.424554,90.0,90.0,120.0000041,hex_,P6_3/mmc,-1.010074879,0.377004774,0.0,Ca,Sn,S
mp-1100345,Ca1 Sn1 S3,9.368545,4.133447,6.509038,89.99948946,90.0,90.0,mono,P2_1,-1.278356642,0.108723011,0.3714,Ca,Sn,S
mp-1100357,Ca1 Sn1 S3,6.964365573,6.964365573,15.34578563,86.94957343,86.94957343,58.02128904,mono,C2/m,-1.131830396,0.255249258,0.0,Ca,Sn,S
mp-1100358,Ca1 Sn1 S3,7.687584,9.261235424,15.56159277,98.72342962,90.0,90.0,mono,P2_1/c,-1.234190813,0.152888841,1.3995,Ca,Sn,S
mp-1100365,Ca1 Sn1 S3,4.781983,7.854605,14.032504,90.0,90.0,90.0,ortho,Pmc2_1,-1.127130154,0.2599495,0.0,Ca,Sn,S
mp-1100371,Ca1 Sn1 S3,7.27401964,7.27401964,17.73715,90.0,90.0,124.0716124,ortho,Cmcm,-1.135816752,0.251262901,0.2672,Ca,Sn,S
mp-1100375,Ca1 Sn1 S3,9.609362,9.33216,20.06121228,84.50911266,90.0,90.0,mono,P2_1/c,-1.278293746,0.108785908,1.7351,Ca,Sn,S
mp-1100379,Ca1 Sn1 S3,8.841258594,8.841258594,25.19747835,89.67706098,89.67706098,120.2942591,mono,C2/c,-1.245873334,0.14120632,1.4208,Ca,Sn,S
mp-1100381,Ca1 Sn1 S3,13.84484946,13.84484946,13.84484946,109.1657836,109.1657836,110.0838371,tet,I4_1/a,-1.32010459,0.066975064,0.8107,Ca,Sn,S
mp-1100389,Ca1 Sn1 S3,19.95751509,19.95751509,18.68372545,64.10242937,64.10242937,60.40825683,mono,C2,1.486424873,2.873504526,0.0442,Ca,Sn,S
mp-1238933,Ca1 Sn1 S3,7.08728,7.120834,9.419872,90.0,90.0,90.0,ortho,Pmc2_1,-1.254014093,0.133065561,0.8479,Ca,Sn,S
mp-1331908,Ca1 Sn1 S3,14.572635,14.572635,13.172062,90.0,90.0,90.0,tet,P4_3,-1.223558481,0.163521172,0.2654,Ca,Sn,S
mp-866471,Ca1 Sn1 S3,9.064421627,9.064421627,9.064421627,60.0,60.0,60.0,cubic,Fd-3m,-1.069222907,0.317856747,0.0,Ca,Sn,S
mp-866495,Ca1 Sn1 S3,8.111912,7.874281,8.694372711,64.97509843,90.0,90.0,mono,P2_1/c,-1.224390341,0.162689312,0.6333,Ca,Sn,S
mp-866504,Ca1 Sn1 S3,7.025877,8.89425,12.55139284,76.64411143,90.0,90.0,mono,P2_1,-1.204776949,0.182302704,0.6837,Ca,Sn,S
mp-866505,Ca1 Sn1 S3,13.212776,14.581803,14.581803,90.0,90.0,90.0,tet,P4_1,-1.223051669,0.164027985,0.3011,Ca,Sn,S
mp-866519,Ca1 Sn1 S3,6.794789141,6.794789141,6.794789174,62.78629783,62.78629783,62.78629644,trig,R-3c,-1.191041463,0.19603819,0.398,Ca,Sn,S
mp-866565,Ca1 Sn1 S3,9.974729,9.974729,9.974729,90.0,90.0,90.0,cubic,P2_13,-1.152172487,0.234907167,0.4264,Ca,Sn,S
mp-866606,Ca1 Sn1 S3,7.033019,8.879264,25.0187013,76.81606831,90.0,90.0,mono,P2_1/c,-1.211271728,0.175807926,0.6984,Ca,Sn,S
mp-866629,Ca1 Sn1 S3,12.322445,13.00183032,17.19045021,100.8957702,86.54603308,114.5128235,tri,P-1,-1.203292903,0.183786751,0.0,Ca,Sn,S
mp-866787,Ca1 Sn1 S3,7.19223993,16.58966631,27.99056523,86.39820362,82.61845506,77.48068326,mono,C2/c,-1.185681207,0.201398447,1.2199,Ca,Sn,S
mp-866811,Ca1 Sn1 S3,3.843456,8.306908,13.790834,90.0,90.0,90.0,ortho,Pnma,-1.313241922,0.073837732,0.8249,Ca,Sn,S
mp-866816,Ca1 Sn1 S3,5.011115,5.011115,5.011115,90.0,90.0,90.0,cubic,Pm-3m,-0.906814922,0.480264731,0.0,Ca,Sn,S
mp-866820,Ca1 Sn1 S3,5.205274,5.205274,5.205274,90.0,90.0,90.0,cubic,Pm-3m,-0.38187122,1.005208433,0.0,Ca,Sn,S