mp_id,formula,sites,composition,a_edge (angstrom),b_edge (angstrom),c_edge (angstrom),alpha_ang (deg),beta_ang (deg),gamma_ang (deg),crystal_system,space_group,total_magnetisation (bohr),energy_per_atom (eV/atom),formation_energy (eV/atom),energy_above_hull (eV/atom),stable,density (g/cc),band_gap (eV),direct_bandgap,volume (cubic-angstrom),bulk_modulus (GPa),shear_modulus (GPa)
mp-555857,BaVS3,10,Ba1 V1 S3,6.796680575,6.796672619,5.687861102,90.00268095,89.99731047,120.791611,ortho,C222_1,1.9362271,-6.348760177,-1.665168234,0.003789165,FALSE,4.185551231,0,FALSE,225.7111327,,
mp-27363,BaVSe3,10,Ba1 V1 Se3,6.022023,7.02663216,7.026632,60.00000075,90,90,hex_,P6_3/mmc,2.0008791,-5.777679637,-1.479556548,0.037731503,FALSE,5.483429588,0,FALSE,257.4942131,,
mp-676597,BaVSe3,10,Ba1 V1 Se3,7.035689792,7.035689792,5.902194,90,90,119.3662653,ortho,Cmc2_1,1.768806,-5.792741587,-1.494618498,0.022669553,FALSE,5.545288729,0,FALSE,254.621798,,
mp-989622,BaWN3,20,Ba1 W1 N3,5.75731796,7.644877338,10.27788765,48.75827415,90,90,mono,P2_1/c,0,-8.800342307,-0.821954625,0,TRUE,7.091932459,1.505,FALSE,340.1534752,,
mp-989636,BaWN3,10,Ba1 W1 N3,7.229839743,7.229839743,6.573942723,75.42182511,75.42182511,31.57821531,mono,C2/m,0.0005434,-8.790327832,-0.811940151,0.010014475,FALSE,6.944880878,1.0938,FALSE,173.677959,,
mp-1183395,BaWO3,5,Ba1 W1 O3,4.164356,4.164356,4.164356,90,90,90,cubic,Pm-3m,2.0006923,-8.40795793,-2.463760293,0.158416016,FALSE,8.48840915,0,FALSE,72.21768247,,
mp-1227349,BaZnIn3,5,Ba1 Zn1 In3,6.928847466,6.928847466,6.928847466,139.7447072,139.7447072,58.24113005,tet,I4mm,0,-2.636065042,-0.344817086,0,TRUE,6.601326276,0,FALSE,137.6436089,,
mp-1183405,BaZnO3,5,Ba1 Zn1 O3,4.11496,4.11496,4.11496,90,90,90,cubic,Pm-3m,1.6937669,-5.448701428,-1.844181115,0.174294128,FALSE,5.97538399,0,FALSE,69.67818891,,
mp-1019544,BaZrO3,10,Ba1 Zr1 O3,5.95393041,5.95667351,5.95393041,119.9847733,90,119.9847733,tet,I4/mcm,0,-8.701352408,-3.639240691,0,TRUE,6.148305056,3.1163,FALSE,149.381251,"{'voigt': 147.122, 'reuss': 147.005, 'vrh': 147.064}","{'voigt': 90.888, 'reuss': 89.956, 'vrh': 90.422}"
mp-3834,BaZrO3,5,Ba1 Zr1 O3,4.21238715,4.21238715,4.21238715,90,90,90,cubic,Pm-3m,0,-8.701280686,-3.639168969,7.17E-05,FALSE,6.143794292,3.0377,FALSE,74.74546324,"{'voigt': 148.845, 'reuss': 148.845, 'vrh': 148.845}","{'voigt': 92.203, 'reuss': 90.635, 'vrh': 91.419}"
mp-540771,BaZrS3,20,Ba1 Zr1 S3,7.0635613,7.13448881,10.04182376,90,90,90,ortho,Pnma,0,-6.683471457,-2.107120602,0,TRUE,4.262395304,0.99,TRUE,506.0566947,"{'voigt': 70.077, 'reuss': 69.873, 'vrh': 69.975}","{'voigt': 34.67, 'reuss': 32.562, 'vrh': 33.616}"
mp-1079300,BaZrSe3,10,Ba1 Zr1 Se3,7.262620504,7.262620504,6.449106,90,90,120.0000046,hex_,P6_3/mmc,6.73E-05,-6.062030293,-1.871148292,0.049314663,FALSE,5.247078596,0,FALSE,294.5892059,,
mp-998350,BaZrSe3,5,Ba1 Zr1 Se3,5.287383,5.296393207,5.309477471,89.89144703,89.91420971,89.96131524,tri,P1,0.0003726,-6.033841046,-1.842959045,0.07750391,FALSE,5.197960745,0.2024,FALSE,148.6864554,,
mp-998427,BaZrSe3,20,Ba1 Zr1 Se3,4.0649102,9.14687945,15.11012795,90,90,90,ortho,Pnma,0,-6.111344957,-1.920462956,0,TRUE,5.502655723,0.3726,TRUE,561.8133478,,
mp-1183417,BeAgO3,5,Be1 Ag1 O3,3.568391,3.568391,3.568391,90,90,90,cubic,Pm-3m,0.0032476,-5.063098896,-0.777852184,0.650631683,FALSE,6.025540851,0,FALSE,45.43780109,,
mp-1183414,BeAuO3,5,Be1 Au1 O3,3.570985,3.570985,3.570985,90,90,90,cubic,Pm-3m,0.005366,-4.999525536,-0.62808996,0.841979058,FALSE,9.261457217,0,FALSE,45.53696457,,
mp-1183422,BeBO3,5,Be1 B1 O3,3.264797,3.264797,3.264797,90,90,90,cubic,Pm-3m,0.0009088,-6.053136558,-1.000599028,1.639571448,FALSE,3.236288161,0,FALSE,34.79914295,,
mp-1183403,BeBiO3,5,Be1 Bi1 O3,3.673799,3.673799,3.673799,90,90,90,cubic,Pm-3m,1.0049679,-6.126205226,-1.631539188,0.485461609,FALSE,8.907780542,0,FALSE,49.58452701,,
mp-1183418,BeCdO3,5,Be1 Cd1 O3,3.615159,3.615159,3.615159,90,90,90,cubic,Pm-3m,1.9998612,-5.172055926,-1.263394712,0.516208148,FALSE,5.954360276,0,FALSE,47.24786719,,
mp-1183426,BeCuO3,5,Be1 Cu1 O3,3.461833,3.461833,3.461833,90,90,90,cubic,Pm-3m,0.0003157,-5.358760686,-0.822260176,0.844820894,FALSE,4.825262704,0,FALSE,41.48760271,,
mp-984722,BeGaO3,5,Be1 Ga1 O3,3.462523,3.462523,3.462523,90,90,90,cubic,Pm-3m,0.0583319,-5.614557182,-1.292278802,1.084756912,FALSE,5.06946491,0,FALSE,41.51241513,"{'voigt': 168.059, 'reuss': 168.059, 'vrh': 168.059}","{'voigt': -17.149, 'reuss': 4.238, 'vrh': -6.455}"
mp-1183415,BeGeO3,5,Be1 Ge1 O3,3.504888,3.504888,3.504888,90,90,90,cubic,Pm-3m,0.0018884,-5.829437096,-1.188172349,1.34696337,FALSE,5.0003507,0,FALSE,43.05488499,,
mp-1183413,BeHgO3,5,Be1 Hg1 O3,3.656609,3.656609,3.656609,90,90,90,cubic,Pm-3m,2.0005718,-4.670660882,-0.892067299,0.603098015,FALSE,8.749032476,0,FALSE,48.89174878,,
mp-1183436,BeInO3,5,Be1 In1 O3,3.556543,3.556543,3.556543,90,90,90,cubic,Pm-3m,0.7138448,-5.796295332,-1.527801407,0.710374608,FALSE,6.342490225,0,FALSE,44.98670569,,
mp-1188955,BeNF3,20,Be1 N1 F3,4.719892,4.815126,12.89482,90,90,90,ortho,Pnma,0.0210167,-4.918626667,-1.356201164,0.875561598,FALSE,1.813512554,1.7006,FALSE,293.0589582,,
mp-1214301,BeNF3,20,Be1 N1 F3,4.724282,6.173578,13.98557892,69.28711201,90,90,mono,P2_1/c,7.9974287,-5.13607727,-1.573651767,0.658110995,FALSE,1.392969106,0,FALSE,381.5347358,,
mp-726347,BeNF3,20,Be1 N1 F3,5.748968,4.712836786,12.65350768,90.19291389,90.13346454,101.3640886,mono,P2_1/c,7.9997782,-5.129551694,-1.567126191,0.664636571,FALSE,1.581232747,2.6969,FALSE,336.1087108,,
mp-1183431,BeOsO3,5,Be1 Os1 O3,3.437481,3.437481,3.437481,90,90,90,cubic,Pm-3m,0.017113,-6.70831386,-0.746181198,1.301001645,FALSE,10.10758924,0,FALSE,40.61822295,,
mp-1183499,BePbO3,5,Be1 Pb1 O3,3.652531,3.652531,3.652531,90,90,90,cubic,Pm-3m,0.0002042,-5.851263928,-1.392075338,0.628855202,FALSE,9.003621813,0,FALSE,48.7283529,,
mp-1183447,BePdO3,5,Be1 Pd1 O3,3.498451,3.498451,3.498451,90,90,90,cubic,Pm-3m,0.0017675,-5.602706964,-0.850071426,0.827586936,FALSE,6.338033157,0,FALSE,42.81809944,,
mp-1183451,BePtO3,5,Be1 Pt1 O3,3.502685,3.502685,3.502685,90,90,90,cubic,Pm-3m,0.0007334,-5.646703856,-0.715818016,1.081286179,FALSE,9.741122778,0,FALSE,42.97374947,,
mp-1183476,BeReO3,5,Be1 Re1 O3,3.454411,3.454411,3.454411,90,90,90,cubic,Pm-3m,2.2897129,-7.214683852,-1.008401835,1.371134622,FALSE,9.797644629,0,FALSE,41.22133225,,
mp-1183443,BeSbO3,5,Be1 Sb1 O3,3.577371,3.577371,3.577371,90,90,90,cubic,Pm-3m,0.0833848,-6.06812796,-1.525668536,0.818877773,FALSE,6.48414502,0,FALSE,45.78170327,,
mp-1183445,BeSiO3,5,Be1 Si1 O3,3.477388,3.477388,3.477388,90,90,90,cubic,Pm-3m,3.20E-06,-6.761510964,-1.959788182,1.245697571,FALSE,3.360455805,0.2691,FALSE,42.04936612,,
mp-1183449,BeVO3,5,Be1 V1 O3,3.428947,3.428947,3.428947,90,90,90,cubic,Pm-3m,1.0038615,-7.243470252,-1.710029862,1.044593365,FALSE,4.446281943,0,FALSE,40.31645309,,
mp-984552,BeZnO3,5,Be1 Zn1 O3,3.503176,3.503176,3.503176,90,90,90,cubic,Pm-3m,1.9999738,-5.16099608,-1.192388182,0.765113784,FALSE,4.7283913,0,FALSE,42.99182395,,
mp-31250,BiBO3,20,Bi1 B1 O3,5.0360157,6.585006132,8.30720892,109.7120783,90,90,mono,P2_1/c,0,-7.373128569,-2.29046675,0,TRUE,6.858520762,3.0096,FALSE,259.3416907,,
mp-1178485,BiCO3,20,Bi1 C1 O3,5.213685,6.977569184,8.634501891,99.08810401,90.02579952,90.62654414,tri,P-1,0.0015635,-7.2055585,-1.613041937,0.079999967,FALSE,5.760646941,1.4111,FALSE,310.1507492,,
mp-1183479,BiMoO3,5,Bi1 Mo1 O3,4.116636,4.116636,4.116636,90,90,90,cubic,Pm-3m,2.7578378,-7.32215941,-1.406245923,0.353929595,FALSE,8.400327969,0,FALSE,69.76336219,,
mp-753455,BiOF3,20,Bi1 O1 F3,14.828852,4.167796,6.445144496,84.08269529,90,90,mono,P2_1/c,3.999546,-5.060385857,-2.145899414,0.07703403,FALSE,4.727083711,0.0241,FALSE,396.2108969,,
mp-1214261,BiPb3Au,20,Bi1 Pb3 Au1,11.510874,11.510874,4.50053,90,90,90,tet,P4_2/mnm,0.0024061,-55.62982899,-0.041301747,0.012226241,FALSE,11.44538774,0,FALSE,596.3212162,,
mp-1183469,BiPtO3,5,Bi1 Pt1 O3,4.070707,4.070707,4.070707,90,90,90,cubic,Pm-3m,0.0024045,-5.715715784,-0.754705655,0.548429729,FALSE,11.12853879,0,FALSE,67.45428326,,
mp-680530,BiPtPb3,20,Bi1 Pt1 Pb3,11.696226,11.696226,4.177592,90,90,90,tet,P4_2/mnm,5.06E-05,-55.93456521,-0.165486613,0.002416454,FALSE,11.92056513,0,FALSE,571.5016985,,
mp-573119,BiRhO3,20,Bi1 Rh1 O3,5.440072,5.92128,7.812214,90,90,90,ortho,Pnma,0.0028722,-6.566503554,-1.346858515,0.061984177,FALSE,9.498988703,0.4103,FALSE,251.648518,"{'voigt': 175.689, 'reuss': 170.973, 'vrh': 173.331}","{'voigt': 51.547, 'reuss': -210.57, 'vrh': -79.512}"
mp-755382,BiSbO3,10,Bi1 Sb1 O3,5.978990721,5.978990721,5.978990232,64.72337449,64.72337449,64.72337334,trig,R-3,9.00E-07,-6.191114895,-1.618531182,0.086220949,FALSE,7.542578068,2.1066,FALSE,166.7626734,,
mp-1227486,BiSbS3,20,Bi1 Sb1 S3,3.968885,11.205584,11.867692,90,90,90,ortho,Pnma,0.0006943,-22.01076539,-0.348048047,0.002304087,FALSE,5.372816125,1.3484,FALSE,527.7998682,,
mp-1227508,BiSbSe3,20,Bi1 Sb1 Se3,4.113691,11.635594,12.417885,90,90,90,ortho,Pnma,0.0007027,-25.77291121,-0.344257173,0.015028588,FALSE,6.343065923,1.0106,FALSE,594.3850249,,
mp-1227340,BiSbTe3,5,Bi1 Sb1 Te3,10.93960463,10.93960463,10.939605,23.01256525,23.01256525,23.01256526,trig,R3m,0,-3.921487398,-0.431696752,0.004540644,FALSE,6.747313633,0.2133,TRUE,175.6049554,,
mp-29526,BrNO3,20,Br1 N1 O3,4.11367551,6.77359703,11.57273897,90,90,90,ortho,P2_12_12_1,0,-5.499931956,-0.536110497,0,TRUE,2.923029359,2.208,FALSE,322.4671988,,
mp-1079290,C3IN,10,C3 I1 N1,8.544118,5.351875,5.96369687,86.69217046,90,90,mono,P2_1/m,0,-5.772139143,1.737518225,1.803095259,FALSE,2.158482571,1.9388,FALSE,272.247936,,
mp-722025,C3IN,10,C3 I1 N1,8.672597,6.042851,6.838196407,65.76728626,90,90,mono,P2_1/m,0.0011907,-5.880080405,1.629576963,1.695153997,FALSE,1.798208355,1.951,FALSE,326.7932901,,
mp-1080825,C3NCl,10,C3 N1 Cl1,8.068764,4.893445,6.329732296,71.1496637,90,90,mono,P2_1/m,0.0018752,-6.174505964,1.400056212,1.575996914,FALSE,1.200431718,2.0218,TRUE,236.5190317,,
mp-722045,C3NCl,10,C3 N1 Cl1,6.986712,4.797261,6.890542435,76.89410451,90,90,mono,P2_1/m,0.0012202,-6.355672524,1.218889652,1.394830354,FALSE,1.262252136,1.325,TRUE,224.9352086,,
mp-28765,CBr3F,20,C1 Br3 F1,6.60436,9.502543,10.229411,90,90,90,ortho,Pnma,0.0001583,-3.894362088,-0.684165275,0.023877444,FALSE,2.800979884,3.3196,FALSE,641.9795737,,
mp-23071,CCl3F,40,C1 Cl3 F1,5.96979399,9.72306833,15.91834851,90,90,90,ortho,Pbca,0,-4.352661827,-1.015510939,0.01192178,FALSE,1.974987244,4.9147,TRUE,923.9760006,,
mp-28473,CClF3,10,C1 Cl1 F3,5.972616176,5.972616176,4.67918979,90,90,106.2017154,ortho,Cmc2_1,0,-5.14822885,-1.785901039,0.011826156,FALSE,2.164334653,6.616,FALSE,160.2876894,,
mp-556845,CIF3,20,C1 I1 F3,4.949012079,4.949012079,19.876594,90,90,105.9987771,ortho,Cmce,0.0326025,-4.846858818,-1.549435815,0.08772001,FALSE,2.780630265,3.725,FALSE,467.9756859,,
mp-1188937,CN3Cl,20,C1 N3 Cl1,10.666603,4.021108,9.828688495,80.18028303,90,90,mono,P2_1/c,8.0007468,-6.484104575,0.734302502,0.910243204,FALSE,1.430855804,0.3063,FALSE,415.3915308,,
mp-29700,CS3N,40,C1 S3 N1,11.11835603,11.11835603,17.81084568,65.95204365,65.95204365,31.22659952,mono,C2/c,0.0010586,-6.060956699,-0.064552311,0.195741675,FALSE,1.569779562,2.8283,FALSE,1034.22656,,
mp-1214236,CSN3,10,C1 S1 N3,5.148143,7.219668753,7.331896124,82.74702544,75.43081622,80.6254855,tri,P-1,1.9977887,-7.475025042,0.201346617,0.288111279,FALSE,1.103186971,0,FALSE,259.1862362,,
mp-1013543,Ca3AsN,5,Ca3 As1 N1,5.41143,5.41143,5.41143,90,90,90,cubic,Pm-3m,0.002728,-8.950435539,0.039797013,1.332137823,FALSE,2.191777031,0,FALSE,158.4660143,,
mp-4192,Ca3AsN,20,Ca3 As1 N1,6.72350532,6.71622716,9.52706106,90,90,90,ortho,Pnma,0,-10.28257336,-1.29234081,0,TRUE,3.229329943,0.894,TRUE,430.2095811,"{'voigt': 59.959, 'reuss': 59.841, 'vrh': 59.9}","{'voigt': 45.552, 'reuss': 45.353, 'vrh': 45.452}"
mp-7223,Ca3AsN,5,Ca3 As1 N1,4.75089971,4.75089971,4.75089971,90,90,90,cubic,Pm-3m,0,-10.27452986,-1.28429731,0.0080435,FALSE,3.238955029,0.717,TRUE,107.2327857,"{'voigt': 60.583, 'reuss': 60.583, 'vrh': 60.583}","{'voigt': 51.934, 'reuss': 51.488, 'vrh': 51.711}"
mp-1013642,Ca3AsP,5,Ca3 As1 P1,5.333899,5.333899,5.333899,90,90,90,cubic,Pm-3m,0.0008846,-9.990848819,-1.025951139,0.171206283,FALSE,2.474410166,0.1927,TRUE,151.751979,"{'voigt': 38.905, 'reuss': 38.905, 'vrh': 38.905}","{'voigt': 30.368, 'reuss': 23.203, 'vrh': 26.786}"
mp-1096856,Ca3AsP,5,Ca3 As1 P1,5.424854,5.424854,5.424854,90,90,90,cubic,Pm-3m,0.0004411,-9.768282941,-0.803385261,0.393772161,FALSE,2.352024772,0.1089,TRUE,159.6482504,,
mp-9040,Ca3AuN,5,Ca3 Au1 N1,4.844971,4.844971,4.844971,90,90,90,cubic,Pm-3m,8.10E-06,-17.02602999,-0.860311608,0.02031966,FALSE,4.835878841,0,FALSE,113.7296089,,
mp-1013545,Ca3BiAs,5,Ca3 Bi1 As1,5.53,5.53,5.53,90,90,90,cubic,Pm-3m,0.0030855,-19.95493844,-1.09000127,0.087833249,FALSE,3.96827026,0,FALSE,169.112377,,
mp-1013703,Ca3BiAs,5,Ca3 Bi1 As1,5.84,5.84,5.84,90,90,90,cubic,Pm-3m,0.0001217,-19.33399493,-0.46905776,0.708776759,FALSE,3.369287686,0,FALSE,199.176704,"{'voigt': 26.621, 'reuss': 26.621, 'vrh': 26.621}","{'voigt': 17.908, 'reuss': 7.186, 'vrh': 12.547}"
mp-1013542,Ca3BiN,5,Ca3 Bi1 N1,5.85,5.85,5.85,90,90,90,cubic,Pm-3m,0.0378821,-17.20086818,0.548312925,1.752558042,FALSE,2.846790305,0,FALSE,200.201625,,
mp-31149,Ca3BiN,5,Ca3 Bi1 N1,4.90035347,4.90035347,4.90035347,90,90,90,cubic,Pm-3m,0,-18.95342622,-1.204245117,0,TRUE,4.843294237,0.3687,TRUE,117.6744623,,
mp-1013558,Ca3BiP,5,Ca3 Bi1 P1,5.41746624,5.41746624,5.41746624,90,90,90,cubic,Pm-3m,0,-18.84562672,-1.121780491,0,TRUE,3.761749672,0.0759,TRUE,158.9968941,"{'voigt': 37.265, 'reuss': 37.265, 'vrh': 37.265}","{'voigt': 29.139, 'reuss': 24.962, 'vrh': 27.051}"
mp-1013702,Ca3BiP,5,Ca3 Bi1 P1,5.82,5.82,5.82,90,90,90,cubic,Pm-3m,0.0030177,-18.0064004,-0.282554173,0.839226318,FALSE,3.033958099,0,FALSE,197.137368,"{'voigt': 26.696, 'reuss': 26.696, 'vrh': 26.696}","{'voigt': 17.94, 'reuss': 6.4030000000000005, 'vrh': 12.171}"
mp-1013704,Ca3BiSb,5,Ca3 Bi1 Sb1,5.86,5.86,5.86,90,90,90,cubic,Pm-3m,0.000142,-3.29573292,-0.488565882,0.477410401,FALSE,3.7214153,0,FALSE,201.230056,"{'voigt': 26.893, 'reuss': 26.893, 'vrh': 26.893}","{'voigt': 18.377, 'reuss': 9.207, 'vrh': 13.792}"
mp-1013733,Ca3BiSb,5,Ca3 Bi1 Sb1,5.81,5.81,5.81,90,90,90,cubic,Pm-3m,0.0044518,-3.452892968,-0.64572593,0.320250353,FALSE,3.818322351,0,FALSE,196.122941,"{'voigt': 28.372, 'reuss': 28.372, 'vrh': 28.372}","{'voigt': 19.697, 'reuss': 11.782, 'vrh': 15.74}"
mp-11822,Ca3GeN,5,Ca3 Ge1 N1,4.80418381,4.80418176,4.80418381,90,90,90,cubic,Pm-3m,0.4475857,-9.684532318,-0.861410448,0,TRUE,3.098206879,0,FALSE,110.8813898,,
mp-17193,Ca3GeO,10,Ca3 Ge1 O1,6.66971808,6.66971808,6.66971808,120.089317,119.7906,90.1042207,ortho,Imma,0,-4.825235687,-1.707677987,0,TRUE,3.303431451,0.1402,TRUE,209.989186,,
mp-9721,Ca3GeO,5,Ca3 Ge1 O1,4.71483028,4.71483028,4.71483028,90,90,90,cubic,Pm-3m,2.00E-07,-4.82220977,-1.70465207,0.003025917,FALSE,3.309284015,0,FALSE,104.808907,"{'voigt': 58.534, 'reuss': 58.534, 'vrh': 58.534}","{'voigt': 48.437, 'reuss': 48.418, 'vrh': 48.427}"
mp-1013540,Ca3PN,5,Ca3 P1 N1,5.29,5.29,5.29,90,90,90,cubic,Pm-3m,0.0035256,-7.89443655,-0.045294933,1.160128552,FALSE,1.853233499,0,FALSE,148.035889,"{'voigt': 36.021, 'reuss': 36.021, 'vrh': 36.021}","{'voigt': 26.808, 'reuss': 15.631, 'vrh': 21.22}"
mp-11824,Ca3PN,5,Ca3 P1 N1,4.71165792,4.71165792,4.71165792,90,90,90,cubic,Pm-3m,0,-9.054565102,-1.205423485,0,TRUE,2.622864785,0.8056,TRUE,104.5974882,,
mp-21128,Ca3PbN,5,Ca3 Pb1 N1,5.953987,5.953987,5.953987,90,90,90,cubic,Pm-3m,1.0401184,-2.86468671,0.748858181,1.484656998,FALSE,2.686214811,0,FALSE,211.0686081,,
mp-20273,Ca3PbO,5,Ca3 Pb1 O1,4.84593119,4.84593119,4.84593119,90,90,90,cubic,Pm-3m,8.00E-07,-4.62479418,-1.689312637,0,TRUE,5.011409566,0,FALSE,113.7972401,,
mp-1013544,Ca3SbAs,5,Ca3 Sb1 As1,5.49,5.49,5.49,90,90,90,cubic,Pm-3m,0.0001841,-3.910329466,-0.947144784,0.166019893,FALSE,3.1803556,0.4006,TRUE,165.469149,"{'voigt': 35.485, 'reuss': 35.485, 'vrh': 35.485}","{'voigt': 27.256, 'reuss': 21.14, 'vrh': 24.198}"
mp-1013738,Ca3SbAs,5,Ca3 Sb1 As1,5.75,5.75,5.75,90,90,90,cubic,Pm-3m,0.0038031,-3.430508728,-0.467324045,0.645840631,FALSE,2.768147203,0,FALSE,190.109375,,
mp-1013548,Ca3SbN,5,Ca3 Sb1 N1,4.86018189,4.86018189,4.86018189,90,90,90,cubic,Pm-3m,0,-4.89958617,-1.202770445,0,TRUE,3.702820691,0.4075,TRUE,114.804145,"{'voigt': 57.655, 'reuss': 57.655, 'vrh': 57.655}","{'voigt': 49.134, 'reuss': 49.127, 'vrh': 49.131}"
mp-31157,Ca3SbN,5,Ca3 Sb1 N1,5.757405,5.757405,5.757405,90,90,90,cubic,Pm-3m,0.0201472,-3.216343214,0.480472511,1.683242956,FALSE,2.227459972,0,FALSE,190.8448047,,
mp-1013550,Ca3SbP,5,Ca3 Sb1 P1,5.38244377,5.38244377,5.38244377,90,90,90,cubic,Pm-3m,0,-4.133625522,-1.021370641,0,TRUE,2.906845518,0.6583,TRUE,155.9331688,"{'voigt': 38.669, 'reuss': 38.669, 'vrh': 38.669}","{'voigt': 30.408, 'reuss': 25.354, 'vrh': 27.881}"
mp-1096764,Ca3SbP,5,Ca3 Sb1 P1,5.736281,5.736281,5.736281,90,90,90,cubic,Pm-3m,0.0032317,-3.429233762,-0.316978881,0.70439176,FALSE,2.401425972,0,FALSE,188.7518657,,
mp-11649,Ca3SiO,20,Ca3 Si1 O1,6.65263113,6.66897385,9.43018274,90,90,90,ortho,Pnma,0,-4.875991883,-1.597976148,0.000711516,FALSE,2.608699416,0.5122,TRUE,418.3815907,"{'voigt': 58.552, 'reuss': 58.531, 'vrh': 58.542}","{'voigt': 46.093, 'reuss': 45.991, 'vrh': 46.042}"
mp-1183521,Ca3SiO,20,Ca3 Si1 O1,6.65098862,6.67173224,9.40885366,90,90,90,ortho,Pnma,0,-4.876448077,-1.598432342,0.000255322,FALSE,2.614177552,0.07,TRUE,417.5048518,,
mp-1205330,Ca3SiO,10,Ca3 Si1 O1,6.65683,6.65683,6.65683,120.0643489,119.8736433,90.05378801,ortho,Imma,1.00E-07,-4.876703399,-1.598687664,0,TRUE,2.615034647,0.0566,TRUE,208.6840059,,
mp-637179,Ca3SnN,5,Ca3 Sn1 N1,5.896994,5.896994,5.896994,90,90,90,cubic,Pm-3m,1.0013368,-3.001288218,0.67164163,1.465755379,FALSE,2.048296983,0,FALSE,205.0652433,"{'voigt': 19.651, 'reuss': 19.651, 'vrh': 19.651}","{'voigt': 13.8, 'reuss': 5.16, 'vrh': 9.48}"
mp-29241,Ca3SnO,5,Ca3 Sn1 O1,4.82648645,4.82648645,4.82648645,90,90,90,cubic,Pm-3m,1.20E-06,-4.76223349,-1.76736699,0,TRUE,3.76530011,0,FALSE,112.4328641,"{'voigt': 54.846, 'reuss': 54.846, 'vrh': 54.846}","{'voigt': 46.012, 'reuss': 45.331, 'vrh': 45.672}"
mp-10554,Ca3TlN,5,Ca3 Tl1 N1,4.953824,4.953824,4.953824,90,90,90,cubic,Pm-3m,0.0201225,-17.44418868,-0.759601408,0.023510039,FALSE,4.625355464,0,FALSE,121.5686849,,
mp-1226791,CaAl3Au,5,Ca1 Al3 Au1,4.167006665,4.167007675,6.503251026,71.22534505,71.22534513,90.09656241,tet,I4mm,1.00E-07,-16.11417552,-0.55026575,0,TRUE,5.252778173,0,FALSE,100.5246075,,
mp-1084760,CaBO3,10,Ca1 B1 O3,5.479484,3.673378,6.634696256,86.49954592,90,90,mono,P2_1/m,1.9990868,-7.523356677,-2.817581744,0.100919638,FALSE,2.463790962,0.3587,FALSE,133.295447,,
mp-1189809,CaBO3,20,Ca1 B1 O3,9.439899,3.680898,8.194717935,69.00875662,90,90,mono,P2_1/c,3.9998088,-7.521660023,-2.81588509,0.102616292,FALSE,2.470681811,0.5519,TRUE,265.8473593,,
mp-984628,CaBO3,5,Ca1 B1 O3,3.47968,3.47968,3.47968,90,90,90,cubic,Pm-3m,0.0337239,-6.72671534,-2.020940407,0.897560975,FALSE,3.897366578,0,FALSE,42.13256709,"{'voigt': 195.881, 'reuss': 195.881, 'vrh': 195.881}","{'voigt': 74.493, 'reuss': 43.826, 'vrh': 59.159}"
mp-1206909,CaBPd3,5,Ca1 B1 Pd3,4.27841036,4.27843393,4.27842164,90,90,90,cubic,Pm-3m,2.80E-05,-17.20711354,-0.553911794,0,TRUE,7.848286142,0,FALSE,78.31606338,,
mp-984632,CaBeO3,5,Ca1 Be1 O3,3.614908,3.614908,3.614908,90,90,90,cubic,Pm-3m,2.0069434,-6.349246122,-2.23146697,0.333611443,FALSE,3.412908259,0,FALSE,47.23802664,,
mp-1178493,CaBiO3,20,Ca1 Bi1 O3,5.832066,6.037298,8.734338,90,90,90,ortho,Pnma,0.0042208,-6.312575149,-2.164671708,0.099551024,FALSE,6.415836048,0,FALSE,307.5353457,,
mp-1378965,CaBiO3,20,Ca1 Bi1 O3,5.76338163,6.0323361,8.3243734,90,90,90,ortho,Pnma,1.50E-06,-6.386831216,-2.238927775,0.025294956,FALSE,6.817636362,0,FALSE,289.4106186,,
mp-755893,CaBiO3,20,Ca1 Bi1 O3,5.75831054,6.02554523,8.330347024,90,90.10598141,90,mono,P2_1/c,0,-6.412126172,-2.264222731,0,TRUE,6.826443674,0.6653,FALSE,289.0372281,,