mp_id,formula,sites,composition,a_edge (angstrom),b_edge (angstrom),c_edge (angstrom),alpha_ang (deg),beta_ang (deg),gamma_ang (deg),crystal_system,space_group,total_magnetisation (bohr),energy_per_atom (eV/atom),formation_energy (eV/atom),energy_above_hull (eV/atom),stable,density (g/cc),band_gap (eV),direct_bandgap,volume (cubic-angstrom),bulk_modulus (GPa),shear_modulus (GPa)
mp-754318,MnZnO3,10,Mn1 Zn1 O3,5.404488559,5.404493409,5.404207917,54.57082941,54.570153,54.56824638,trig,R-3,6,-6.866778206,-1.813649823,0.005794234,FALSE,5.734848868,1.7946,TRUE,97.48952848,,
mp-772528,MnZnO3,20,Mn1 Zn1 O3,5.188248,7.405507,5.077817,90,90,90,ortho,Pnma,11.9976204,-6.774189988,-1.721061605,0.098382452,FALSE,5.731355844,0.1204,FALSE,195.0978886,,
mp-1221539,MoBr3O,20,Mo1 Br3 O1,3.924338477,11.74337872,11.73906185,90,90.49903344,90,mono,P2_1/c,3.9999999,-5.292150721,-1.151260577,0,TRUE,4.31762576,0.9067,TRUE,540.974063,,
mp-23528,MoCl3O,20,Mo1 Cl3 O1,14.274816,6.222478,6.254159292,87.69728263,90,90,mono,P2_1/c,3.9732283,-5.674229075,-1.406384856,0.08272775,FALSE,2.612207384,2.4544,FALSE,555.0754104,,
mp-1221516,MoHO3,10,Mo1 H1 O3,7.749319792,7.749319792,3.956301446,88.74939257,88.74939257,29.65220609,mono,C2,2.0000064,-7.48731844,-1.670378527,0.09047667,FALSE,4.096455437,0.7623,FALSE,117.5107269,,
mp-23396,MoNCl3,20,Mo1 N1 Cl3,7.983925563,8.244399145,9.230664192,99.02765497,108.2184309,108.9142057,tri,P-1,0,-6.041199402,-1.095291835,0,TRUE,2.74745665,1.6768,FALSE,522.9331864,,
mp-1186106,MoPbO3,5,Mo1 Pb1 O3,4.107546,4.107546,4.107546,90,90,90,cubic,Pm-3m,2.0007218,-7.563607448,-1.683171409,0.117750639,FALSE,8.413561406,0,FALSE,69.3022456,,
mp-1247498,MoRuN3,20,Mo1 Ru1 N3,8.395553065,5.573767353,7.900263136,107.1216237,103.6919081,111.8508585,tri,P-1,0.0014919,-8.923859007,0.10311817,0.32548434,FALSE,5.258854001,0.0949,TRUE,301.9051825,,
mp-1247512,MoWN3,20,Mo1 W1 N3,5.956011925,7.789977055,7.376578087,104.0241377,106.3041832,105.4997391,tri,P-1,0.0007761,-9.924415655,-0.16069294,0.384697858,FALSE,7.188938802,0,FALSE,297.3243492,,
mp-1070665,NClO3,5,N1 Cl1 O3,4.713392144,4.713392256,4.713392144,85.04043775,85.04044814,85.04043775,trig,R3m,4.0004023,-4.115987836,0.890151648,1.411749977,FALSE,1.562078557,0,FALSE,103.6008398,,
mp-1180300,NClO3,5,N1 Cl1 O3,5.034395636,5.034395636,3.997316304,81.68647511,81.68647511,108.2034122,mono,Cm,0.000129,-5.43081604,-0.424676556,0.096921773,FALSE,1.735096106,2.0014,FALSE,93.27013631,,
mp-1180304,NClO3,5,N1 Cl1 O3,4.489662451,4.489662451,4.767638099,88.29474187,88.29474187,130.4654256,mono,Cm,1.88E-05,-4.816214372,0.189925112,0.711523441,FALSE,2.219037784,0,FALSE,72.92919996,,
mp-754712,NClO3,20,N1 Cl1 O3,4.01463275,6.64170152,11.89242409,90,90,90,ortho,P2_12_12_1,0,-5.527737813,-0.521598329,0,TRUE,2.041411573,3.0976,FALSE,317.099506,,
mp-985586,Na3BrO,5,Na3 Br1 O1,4.53313,4.53313,4.53313,90,90,90,cubic,Pm-3m,0.0681367,-3.737887096,-1.615873121,0,TRUE,2.93902545,1.8815,TRUE,93.15250142,"{'voigt': 31.663, 'reuss': 31.663, 'vrh': 31.663}","{'voigt': 21.94, 'reuss': 21.835, 'vrh': 21.887}"
mp-28602,Na3ClO,5,Na3 Cl1 O1,4.45871654,4.45871654,4.45871654,90,90,90,cubic,Pm-3m,0.0692935,-3.861942746,-1.697610746,0,TRUE,2.255923093,2.0299,TRUE,88.63996782,"{'voigt': 32.992, 'reuss': 32.992, 'vrh': 32.992}","{'voigt': 22.79, 'reuss': 22.081, 'vrh': 22.436}"
mp-769398,Na3IO,30,Na3 I1 O1,6.691748164,6.691748684,16.30793171,90.00000029,89.99999627,120.0014415,hex_,P6_3/mmc,0,-3.551543313,-1.452116121,0.004069657,FALSE,3.337904527,1.6831,TRUE,632.4153722,,
mp-1186101,NaAgO3,5,Na1 Ag1 O3,4.112418,4.112418,4.112418,90,90,90,cubic,Pm-3m,1.6668462,-4.212660156,-0.406951862,0.395609303,FALSE,4.270328335,0,FALSE,69.5491384,,
mp-1186097,NaAlO3,5,Na1 Al1 O3,3.75438,3.75438,3.75438,90,90,90,cubic,Pm-3m,1.9995753,-6.112593596,-2.126357671,0.216979795,FALSE,3.074152027,0,FALSE,52.91937216,,
mp-17868,NaAsO3,30,Na1 As1 O3,7.289213347,7.446254343,7.953300064,103.5388353,91.3965612,90.2517925,tri,P-1,0,-6.056050934,-1.884905668,0,TRUE,3.465053659,2.8628,FALSE,419.5407583,,
mp-976133,NaAsO3,5,Na1 As1 O3,3.719232,3.719232,3.719232,90,90,90,cubic,Pm-3m,0.0454476,-5.751620022,-1.580474757,0.304430912,FALSE,4.709481155,0,FALSE,51.44697091,"{'voigt': 126.053, 'reuss': 126.053, 'vrh': 126.053}","{'voigt': 122.057, 'reuss': 121.913, 'vrh': 121.985}"
mp-28614,NaBPt3,10,Na1 B1 Pt3,5.5548291,5.554828426,5.53961418,90,90,119.9999979,hex_,P6/mmm,1.00E-07,-33.59008308,-0.515345987,0,TRUE,13.88849714,0,FALSE,148.0306037,,
mp-23729,NaBeH3,5,Na1 Be1 H3,3.342892,3.342892,3.342892,90,90,90,cubic,Pm-3m,0.0003024,-3.200501326,-0.147174734,0.126078057,FALSE,1.556932438,0.9148,FALSE,37.35657381,,
mp-976185,NaBeO3,5,Na1 Be1 O3,3.589369,3.589369,3.589369,90,90,90,cubic,Pm-3m,3.0194623,-5.310983884,-1.325980552,0.459261113,FALSE,2.872668967,0,FALSE,46.24388611,"{'voigt': 109.135, 'reuss': 109.135, 'vrh': 109.135}","{'voigt': 30.384, 'reuss': 30.359, 'vrh': 30.372}"
mp-23054,NaBiO3,10,Na1 Bi1 O3,6.188547629,6.188547901,6.188547465,53.82550302,53.8255118,53.82551821,trig,R-3,0,-5.595388328,-1.580260707,0,TRUE,6.48368124,1.0964,FALSE,143.4056973,"{'voigt': 24592730.389, 'reuss': -15523.396, 'vrh': 12288603.496}","{'voigt': -2447381984.355, 'reuss': -237237.264, 'vrh': -1223809610.809}"
mp-1180213,NaBrO3,20,Na1 Br1 O3,7.124209,7.685813231,8.166172108,87.44489844,85.89005659,78.73787479,tri,P1,5.020679,-3.863560895,-0.299050829,0.700010647,FALSE,2.292478117,0,FALSE,437.1897956,,
mp-1189541,NaBrO3,20,Na1 Br1 O3,7.779176,7.779176,7.779176,90,90,90,cubic,P2_13,0.0004822,-4.431377761,-0.866867695,0.132193781,FALSE,2.128993931,4.5929,FALSE,470.7613416,,
mp-1413617,NaBrO3,20,Na1 Br1 O3,7.749286,7.387425,7.536830167,89.69588394,90,90,ortho,P2_12_12_1,0.0271274,-3.954399958,-0.389889892,0.609171584,FALSE,2.322939129,0,FALSE,431.4568672,,
mp-23339,NaBrO3,20,Na1 Br1 O3,6.64015405,6.64015405,6.64015405,90,90,90,cubic,P2_13,0,-4.563571542,-0.999061476,0,TRUE,3.423266817,4.4812,FALSE,292.7753205,"{'voigt': 27.038, 'reuss': 27.038, 'vrh': 27.038}","{'voigt': 16.287, 'reuss': 16.176, 'vrh': 16.231}"
mp-608595,NaBrO3,20,Na1 Br1 O3,7.536830314,7.749285304,7.387425298,89.94961561,89.69588643,89.80975002,mono,P2_1,7.9975044,-4.065098086,-0.50058802,0.498473457,FALSE,2.322952867,0.0808,FALSE,431.4543156,,
mp-1120755,NaCO3,10,Na1 C1 O3,6.326281536,6.326281816,6.32628419,47.00053274,47.00033762,47.000409,trig,R-3c,2.0000001,-6.870565966,-1.787712109,0,TRUE,2.226615596,0.6623,FALSE,123.7955335,,
mp-727242,NaCO3,20,Na1 C1 O3,9.15164117,3.460615926,8.213215058,71.88998346,90,90,mono,P2_1/c,4,-6.868757732,-1.785903875,0.001808234,FALSE,2.229873118,0.6706,FALSE,247.2293723,,
mp-1078750,NaCaH3,10,Na1 Ca1 H3,3.630551,6.814403247,6.865981052,117.0100006,99.71238681,95.21055401,tri,P-1,0,-4.646388131,-0.452825836,0.064464225,FALSE,1.498962107,1.9794,FALSE,146.4315415,,
mp-1078933,NaCaH3,10,Na1 Ca1 H3,6.111790511,6.111790511,6.111790197,57.39224941,57.39224941,57.39225342,trig,R3c,6.25E-05,-4.640465399,-0.446903104,0.070386957,FALSE,1.446477697,3.312,FALSE,151.7447054,,
mp-1221112,NaCaN3,20,Na1 Ca1 N3,12.85193346,12.5086027,5.861908121,79.92474785,73.39075682,26.68449533,ortho,Fddd,24.0011058,-4.421418096,1.251012683,1.721055264,FALSE,1.752103271,0,FALSE,398.3840799,,
mp-1186118,NaCaO3,5,Na1 Ca1 O3,4.506638,4.506638,4.506638,90,90,90,cubic,Pm-3m,3,-4.958331354,-1.320090619,0.546416482,FALSE,2.014986243,0,FALSE,91.52885364,,
mp-4360,NaCdF3,10,Na1 Cd1 F3,5.987616054,5.987616657,5.987616973,57.13239183,57.13238765,57.1323863,trig,R3c,0,-4.269607992,-2.662374418,0,TRUE,4.507306172,3.482,TRUE,141.76141,,
mp-976293,NaCdO3,5,Na1 Cd1 O3,4.256636,4.256636,4.256636,90,90,90,cubic,Pm-3m,2.1038432,-4.037286258,-0.608163461,0.474396422,FALSE,3.948630056,0,FALSE,77.12577501,,
mp-1180278,NaClO3,20,Na1 Cl1 O3,8.44676,8.48323538,8.515754858,70.41140627,70.12355986,70.47163968,tri,P1,12,-4.307619072,-0.700790981,0.41308131,FALSE,1.350098754,1.2022,FALSE,523.6635832,,
mp-1180505,NaClO3,20,Na1 Cl1 O3,7.682388812,7.682388812,7.682389176,86.76561612,86.76561612,86.76560981,trig,R3,11.9999999,-4.018776614,-0.411948523,0.701923768,FALSE,1.566512979,0.6227,FALSE,451.3193064,,
mp-23330,NaClO3,20,Na1 Cl1 O3,6.689606,6.689606,6.689606,90,90,90,cubic,P2_13,0.0003998,,,,FALSE,2.361654107,5.6332,FALSE,299.3654104,,
mp-2720358,NaClO3,20,Na1 Cl1 O3,6.67544456,6.67544456,6.67544456,90,90,90,cubic,P2_13,0,-4.690814744,-1.083986653,0.029885638,FALSE,2.376716216,5.6459,FALSE,297.4682238,"{'voigt': 25.827, 'reuss': 25.827, 'vrh': 25.827}","{'voigt': 14.536, 'reuss': 14.369, 'vrh': 14.452}"
mp-555726,NaClO3,20,Na1 Cl1 O3,7.239993,7.239993,7.239993,90,90,90,cubic,P2_13,0.0009456,-4.652248139,-1.045420048,0.068452243,FALSE,1.862959744,5.7061,FALSE,379.5023232,,
mp-630949,NaClO3,20,Na1 Cl1 O3,5.90083,6.842051,9.181822617,75.31584662,90,90,mono,P2_1/c,8.0004817,-4.147860032,-0.541031941,0.57284035,FALSE,1.971566353,0,FALSE,358.5968842,,
mp-655586,NaClO3,20,Na1 Cl1 O3,7.294636,7.301923935,7.308964538,87.77943299,88.27086094,87.96063604,tri,P1,11.9999991,-4.210197827,-0.603369736,0.510502555,FALSE,1.819295168,0,TRUE,388.6106904,,
mp-1078336,NaCoF3,10,Na1 Co1 F3,5.181276045,5.181276045,7.43604541,90,90,145.8479615,ortho,Cmcm,6.0000002,-5.435106413,-2.593191533,0.005047058,FALSE,4.116776965,2.2744,FALSE,112.0677932,,
mp-21404,NaCoF3,20,Na1 Co1 F3,5.36910055,5.57463889,7.70449501,90,90,90,ortho,Pnma,11.9999999,-5.440153471,-2.598238591,0,TRUE,4.001342241,2.9522,FALSE,230.6016741,,
mp-1186126,NaCoO3,5,Na1 Co1 O3,3.763369,3.763369,3.763369,90,90,90,cubic,Pm-3m,4.0980843,-5.723174786,-1.059370683,0.222207793,FALSE,4.047609362,0,FALSE,53.30039279,,
mp-1076642,NaCrO3,5,Na1 Cr1 O3,3.74807,3.74807,3.74807,90,90,90,cubic,Pm-3m,1.0000756,-6.875870178,-1.708139925,0.296446778,FALSE,3.878598958,0,FALSE,52.65299502,,
mp-17869,NaCuF3,20,Na1 Cu1 F3,5.338206053,5.526096219,7.844604443,89.35495005,87.58387967,86.7059861,tri,P-1,0.0025739,-7.070884034,-2.314495994,0,TRUE,4.130392555,0.0809,FALSE,230.8146691,,
mp-505085,NaCuF3,20,Na1 Cu1 F3,5.51324215,5.289499069,9.31335085,57.61218005,90,90,mono,P2_1/c,3.9978767,-7.066572782,-2.310184742,0.004311252,FALSE,4.156783726,0,FALSE,229.3492406,,
mp-1078217,NaFeF3,10,Na1 Fe1 F3,5.300297342,5.300297342,7.3093313,90,90,145.9062102,ortho,Cmcm,7.9999997,-5.848301255,-2.739065477,0,TRUE,3.91906841,2.2462,FALSE,115.1043885,,
mp-505066,NaFeF3,20,Na1 Fe1 F3,5.40024129,5.67492859,7.75734924,90,90,90,ortho,Pnma,16.0000008,-5.847886418,-2.738650639,0.000414838,FALSE,3.795052706,1.8013,TRUE,237.7315983,,
mp-1186134,NaFeO3,5,Na1 Fe1 O3,3.830481,3.830481,3.830481,90,90,90,cubic,Pm-3m,4.8108835,-6.223837712,-1.292712711,0.145586835,FALSE,3.747324649,0,FALSE,56.20305688,,
mp-754915,NaFeO3,10,Na1 Fe1 O3,5.081973297,5.081823001,6.026080112,65.06173316,89.99959398,59.99876032,trig,R-3,5.00E-07,-6.314208284,-1.383083283,0.055216263,FALSE,3.578075455,0,FALSE,117.7231185,,
mp-13674,NaGeAu3,40,Na1 Ge1 Au3,9.08579863,9.08579863,9.08579863,90,90,90,cubic,Pa-3,4.00E-07,-34.10458414,-0.266376418,0,TRUE,12.15931057,0.0512,FALSE,750.0484566,,
mp-1186133,NaGeO3,5,Na1 Ge1 O3,3.764763,3.764763,3.764763,90,90,90,cubic,Pm-3m,0.442854,-5.856373396,-1.694647066,0.234104382,FALSE,4.46966725,0,FALSE,53.35964417,,
mp-608490,NaHgCl3,20,Na1 Hg1 Cl3,4.197563,7.490832,18.240625,90,90,90,ortho,Pnma,5.19E-05,-15.4480883,-1.170227545,0.055224329,FALSE,3.820985976,2.5331,TRUE,573.5443358,,
mp-22989,NaIO3,20,Na1 I1 O3,5.71285073,6.37266126,8.00742924,90,90,90,ortho,Pnma,0,-4.860507161,-1.318583879,0,TRUE,4.508908999,3.6962,FALSE,291.5189696,,
mp-545825,NaIO3,5,Na1 I1 O3,4.535083844,4.535083844,5.992743,90,90,128.2781516,ortho,Cmmm,0.0004339,-3.82985387,-0.287930588,1.030653291,FALSE,3.396294554,0,FALSE,96.75489602,,
mp-559252,NaIO3,20,Na1 I1 O3,5.566224,7.421278,8.59996,90,90,90,ortho,Pna2_1,0.0025301,-4.727220109,-1.185296827,0.133287052,FALSE,3.700006434,3.3956,FALSE,355.2514108,,
mp-1186138,NaInO3,5,Na1 In1 O3,4.238881,4.238881,4.238881,90,90,90,cubic,Pm-3m,1.9997622,-4.962980384,-1.174024877,0.409093491,FALSE,4.050933239,0,FALSE,76.16468912,,
mp-1079568,NaIrO3,10,Na1 Ir1 O3,5.300271506,5.300271506,7.161737932,89.99755849,90.00244151,146.2510454,ortho,Cmcm,0.6267535,-6.476679781,-1.471872186,0,TRUE,7.820444002,0,FALSE,111.7742506,,
mp-975990,NaLiO3,5,Na1 Li1 O3,3.837825,3.837825,3.837825,90,90,90,cubic,Pm-3m,4.0004297,-4.35389962,-0.734994288,0.469173151,FALSE,2.289246331,0,FALSE,56.52694345,"{'voigt': 49.933, 'reuss': 49.933, 'vrh': 49.933}","{'voigt': 19.044, 'reuss': 7.079, 'vrh': 13.061}"
mp-12948,NaMgF3,10,Na1 Mg1 F3,2.9723323,5.169685079,7.29113575,90,90,106.70698,ortho,Cmcm,2.30E-06,-6.897936206,-3.47704665,0.031401028,FALSE,3.227720226,6.6207,TRUE,107.3064405,,
mp-2955,NaMgF3,20,Na1 Mg1 F3,5.29698319,5.47126659,7.59868745,90,90,90,ortho,Pnma,0,-6.929337234,-3.508447677,0,TRUE,3.145550165,6.7529,TRUE,220.2191351,"{'voigt': 69.298, 'reuss': 68.994, 'vrh': 69.146}","{'voigt': 41.921, 'reuss': 41.583, 'vrh': 41.752}"
mp-560399,NaMgF3,5,Na1 Mg1 F3,3.950839,3.950839,3.950839,90,90,90,cubic,Pm-3m,0.0002246,-6.887689431,-3.466799875,0.041647802,FALSE,2.808171843,5.9262,FALSE,61.66915483,"{'voigt': 71.171, 'reuss': 71.171, 'vrh': 71.171}","{'voigt': 43.454, 'reuss': 41.514, 'vrh': 42.484}"
mp-23730,NaMgH3,20,Na1 Mg1 H3,5.31825568,5.42821054,7.61022894,90,90,90,ortho,Pnma,0,-2.928579683,-0.297041662,0,TRUE,1.521296714,3.103,TRUE,219.696743,,
mp-976775,NaMgO3,5,Na1 Mg1 O3,4.017664,4.017664,4.017664,90,90,90,cubic,Pm-3m,3,-4.949683258,-1.386468496,0.372954516,FALSE,2.439996011,0,FALSE,64.85162171,"{'voigt': 67.537, 'reuss': 67.537, 'vrh': 67.537}","{'voigt': 24.672, 'reuss': -3.24, 'vrh': 10.716}"
mp-27176,NaMnCl3,10,Na1 Mn1 Cl3,7.24814101,7.248141219,7.248140997,53.94276245,53.94276057,53.94276353,trig,R-3,10.0000003,-9.105281022,-1.764314634,0.004151162,FALSE,2.647732669,0.2729,TRUE,231.1528336,,
mp-560242,NaMnF3,20,Na1 Mn1 F3,5.48554473,5.72833986,7.94483284,90,90,90,ortho,Pnma,19.9999972,-6.213123988,-2.965489393,0,TRUE,3.58973057,2.7474,TRUE,249.650995,,
mp-1040471,NaMoO3,5,Na1 Mo1 O3,3.948882,3.948882,3.948882,90,90,90,cubic,Pm-3m,1.0003638,-7.421171806,-2.014921025,0.096339849,FALSE,4.501484286,0,FALSE,61.57755903,,
mp-998627,NaMoO3,10,Na1 Mo1 O3,5.540828952,5.540828952,5.540828988,59.82848922,59.82848922,59.82847977,trig,R3c,2.0013502,-7.429267823,-2.023017042,0.088243832,FALSE,4.626929679,0,FALSE,119.8161345,,
mp-1173585,NaNO3,20,Na1 N1 O3,5.184663,6.490415882,8.932245574,102.8579834,90.69997273,112.6384976,tri,P1,0,-6.255033536,-1.350257228,0.012939741,FALSE,2.099817008,2.7742,FALSE,268.8557493,,
mp-1220986,NaNO3,5,Na1 N1 O3,4.066763369,4.066763369,4.066764011,75.98976215,75.98976215,75.98975768,trig,R32,0,-6.249700839,-1.344924531,0.018272438,FALSE,2.272660521,2.8579,FALSE,62.10209026,,
mp-4531,NaNO3,10,Na1 N1 O3,6.168633246,6.168633278,6.168632823,48.31173923,48.31173643,48.31173891,trig,R-3c,0,-6.267973277,-1.363196969,0,TRUE,2.352161255,2.9451,FALSE,120.0062015,,
mp-674297,NaNO3,40,Na1 N1 O3,5.129242,6.47355893,17.70518524,82.52805993,81.80349083,66.8892943,tri,P1,0.0001924,-6.258526455,-1.353750147,0.009446822,FALSE,2.116737434,2.5714,FALSE,533.4132294,,
mp-1078295,NaNbO3,10,Na1 Nb1 O3,5.380428943,5.38042873,6.025465474,63.482311,63.48231063,59.99998666,trig,R-3,0,-8.099062602,-2.841680835,0.00314193,FALSE,4.20510283,3.8374,FALSE,129.4393886,,
mp-1105765,NaNbO3,20,Na1 Nb1 O3,5.562819,5.611539,7.90948,90,90,90,ortho,Pnma,0.0002109,-8.07698637,-2.819604603,0.025218162,FALSE,4.409082467,1.865,FALSE,246.902136,"{'voigt': 111.645, 'reuss': 110.723, 'vrh': 111.184}","{'voigt': 85.913, 'reuss': 83.041, 'vrh': 84.477}"
mp-1188528,NaNbO3,20,Na1 Nb1 O3,5.46380577,5.55560515,7.91780312,90,90,90,ortho,Pna2_1,0,-8.099323948,-2.841942181,0.002880584,FALSE,4.529411164,2.3501,TRUE,240.3429143,,
mp-1189194,NaNbO3,20,Na1 Nb1 O3,5.626237,5.679295,7.888613,90,90,90,ortho,Pnma,0.0012165,-8.072661722,-2.815279955,0.02954281,FALSE,4.318768925,1.6607,FALSE,252.0653218,,
mp-1190015,NaNbO3,20,Na1 Nb1 O3,5.52130513,5.58318855,7.80092354,90,90,90,ortho,Pmn2_1,0,-8.098559642,-2.841177875,0.00364489,FALSE,4.526921926,2.2326,TRUE,240.4750726,,
mp-1194823,NaNbO3,120,Na1 Nb1 O3,5.63061416,5.64571163,47.84336804,90,90,90,ortho,Pnma,2.98E-05,-8.077170566,-2.819788799,0.025033966,FALSE,4.294653347,1.7196,TRUE,1520.884399,,
mp-1195803,NaNbO3,60,Na1 Nb1 O3,5.613677,5.653924,23.805242,90,90,90,ortho,Pnma,9.20E-05,-8.076850097,-2.819468331,0.025354435,FALSE,4.322393844,1.6548,TRUE,755.5617916,,
mp-1198142,NaNbO3,120,Na1 Nb1 O3,7.94730459,7.93582613,23.77232728,90,90,90,ortho,Pmmn,2.00E-05,-8.073842632,-2.816460865,0.0283619,FALSE,4.356529072,1.7321,TRUE,1499.283298,,
mp-1199037,NaNbO3,40,Na1 Nb1 O3,5.691951,5.703243,15.991218,90,90,90,ortho,P222_1,0.0016615,-8.059723845,-2.802342079,0.042480687,FALSE,4.194097208,1.7575,TRUE,519.1161888,,
mp-1199593,NaNbO3,80,Na1 Nb1 O3,7.90732,7.952663,15.940201,90,90,90,ortho,Pmmn,0.0006578,-8.069500855,-2.812119088,0.032703677,FALSE,4.344075585,1.6316,TRUE,1002.387604,,
mp-1203293,NaNbO3,120,Na1 Nb1 O3,7.92643002,7.96962381,23.703308,90,90,90,ortho,Pnma,7.00E-07,-8.077633764,-2.820251997,0.024570768,FALSE,4.362143096,1.8049,TRUE,1497.353739,,
mp-1977728,NaNbO3,10,Na1 Nb1 O3,5.61558468,5.61558468,5.61558468,89.23746549,60.12555079,119.2479848,ortho,Imma,0.0006232,-8.072796319,-2.815414552,0.029408213,FALSE,4.318768371,1.6644,TRUE,126.0326771,,
mp-3136,NaNbO3,5,Na1 Nb1 O3,4.009335,4.009335,4.009335,90,90,90,cubic,Pm-3m,0.0005892,-8.057865508,-2.800483741,0.044339024,FALSE,4.222756529,1.5249,FALSE,64.44912652,"{'voigt': 176.561, 'reuss': 176.561, 'vrh': 176.561}","{'voigt': 108.451, 'reuss': 91.726, 'vrh': 100.088}"
mp-3671,NaNbO3,40,Na1 Nb1 O3,5.5248728,5.6112517,15.54671286,90,90,90,ortho,Pbcm,0,-8.100463425,-2.843081658,0.001741107,FALSE,4.517336614,2.3565,TRUE,481.9706708,"{'voigt': 103.035, 'reuss': 100.95, 'vrh': 101.993}","{'voigt': 63.342, 'reuss': 54.969, 'vrh': 59.156}"
mp-4419,NaNbO3,10,Na1 Nb1 O3,5.573516,5.573516,4.01795,90,90,90,tet,P4/mbm,1.92E-05,-8.071345507,-2.81396374,0.030859025,FALSE,4.360939292,1.5604,FALSE,124.8139227,"{'voigt': 136.407, 'reuss': 124.87, 'vrh': 130.639}","{'voigt': 106.456, 'reuss': 93.36, 'vrh': 99.908}"
mp-4514,NaNbO3,10,Na1 Nb1 O3,5.617198572,5.617198085,5.617198165,58.72980802,58.72981109,58.72980534,trig,R3c,0,-8.102204532,-2.844822765,0,TRUE,4.472888253,2.5048,FALSE,121.6900376,,
mp-4681,NaNbO3,20,Na1 Nb1 O3,5.53000775,5.60546511,7.79067262,90,90,90,ortho,Pmc2_1,0,-8.099796757,-2.84241499,0.002407775,FALSE,4.507759327,2.3684,TRUE,241.4973383,"{'voigt': 95.333, 'reuss': 90.148, 'vrh': 92.741}","{'voigt': 59.193, 'reuss': 50.747, 'vrh': 54.97}"
mp-4748,NaNbO3,20,Na1 Nb1 O3,5.581053515,5.581053515,7.944256,90,90,90.60105371,ortho,Cmcm,0.0003101,-8.075503793,-2.818122026,0.026700739,FALSE,4.399581445,1.681,FALSE,247.4353283,"{'voigt': 125.789, 'reuss': 123.897, 'vrh': 124.843}","{'voigt': 77.162, 'reuss': -194.397, 'vrh': -58.617}"
mp-558920,NaNbO3,40,Na1 Nb1 O3,5.50155075,5.59235205,15.6835549,90,90,90,ortho,Pca2_1,0,-8.100389332,-2.843007566,0.001815199,FALSE,4.512102215,2.4098,TRUE,482.5297953,,
mp-559354,NaNbO3,20,Na1 Nb1 O3,4.040949341,4.040949341,15.956757,90,90,90.47144013,ortho,Cmcm,0.0008592,-8.063036807,-2.80565504,0.039167725,FALSE,4.178075921,2.0583,TRUE,260.5533982,,
mp-1078237,NaNiF3,10,Na1 Ni1 F3,2.99466387,5.175339021,7.31394038,90,90,106.8172885,ortho,Cmcm,4.0000002,-7.537090187,-2.553717915,0.005519015,FALSE,4.244555613,5.1242,FALSE,108.5064665,,
mp-561480,NaNiF3,20,Na1 Ni1 F3,5.295510731,5.52379538,7.609582551,90.00064139,90.00141003,90.00101808,ortho,Pnma,7.9999986,-7.542609201,-2.55923693,0,TRUE,4.138200964,0,FALSE,222.5903167,,
mp-1186154,NaNiO3,5,Na1 Ni1 O3,3.821156,3.821156,3.821156,90,90,90,cubic,Pm-3m,2.9299628,-5.138825782,-0.745677687,0.320827804,FALSE,3.859600732,0,FALSE,55.79358976,,
mp-1040464,NaOsO3,5,Na1 Os1 O3,3.876674,3.876674,3.876674,90,90,90,cubic,Pm-3m,0.0034918,-7.098090474,-1.615496229,0.035054636,FALSE,7.445164566,0,FALSE,58.26098792,,