mp_id,formula,sites,composition,a_edge (angstrom),b_edge (angstrom),c_edge (angstrom),alpha_ang (deg),beta_ang (deg),gamma_ang (deg),crystal_system,space_group,total_magnetisation (bohr),energy_per_atom (eV/atom),formation_energy (eV/atom),energy_above_hull (eV/atom),stable,density (g/cc),band_gap (eV),direct_bandgap,volume (cubic-angstrom),bulk_modulus (GPa),shear_modulus (GPa)
mp-1018645,YPt3C,5,Y1 Pt3 C1,4.324374,4.324374,4.324374,90,90,90,cubic,Pm-3m,0.0008575,-7.043953656,-0.253722265,0.512941418,FALSE,14.08997309,0,FALSE,80.86670405,"{'voigt': 182.457, 'reuss': 182.457, 'vrh': 182.457}","{'voigt': 6.117, 'reuss': -69.41, 'vrh': -31.646}"
mp-989611,YReN3,10,Y1 Re1 N3,5.471117058,5.471117058,5.471117161,60.99983681,60.99983681,60.99983482,trig,R-3c,0.0004597,-20.86750631,-0.84541277,0.032463341,FALSE,8.894777828,0,FALSE,118.4091751,,
mp-989628,YReN3,20,Y1 Re1 N3,7.43632244,7.43632244,6.334765267,72.5418526,72.5418526,81.91295632,mono,C2/c,0.0259579,-20.89114021,-0.869046672,0.008829439,FALSE,6.618187349,0,FALSE,318.2815022,,
mp-989647,YReN3,20,Y1 Re1 N3,5.3829449,5.59557393,7.68551211,90,90,90,ortho,Pnma,5.70E-06,-20.89996965,-0.877876111,0,TRUE,9.099406619,0,FALSE,231.4927444,,
mp-998367,YReN3,5,Y1 Re1 N3,3.938282,3.950566802,3.95057015,89.70689621,89.06256047,88.10488658,tri,P1,4.67E-05,-20.77428955,-0.752196014,0.125680098,FALSE,8.57363036,0,FALSE,61.4222483,,
mp-22120,YRh3C,5,Y1 Rh3 C1,4.15423783,4.15423783,4.15423783,90,90,90,cubic,Pm-3m,4.00E-07,-8.042441466,-0.476305346,0,TRUE,9.487898233,0,FALSE,71.69255675,,
mp-1207629,YRhO3,20,Y1 Rh1 O3,5.22677739,5.75872435,7.58046239,90,90,90,ortho,Pnma,0,-8.290526322,-2.547069845,0,TRUE,6.981031071,1.00E-04,TRUE,228.1686601,,
mp-1340878,YSbO3,20,Y1 Sb1 O3,5.737096,6.044614,8.559337,90,90,90,ortho,Pnma,0.000918,-7.689127059,-2.592731908,0.313278646,FALSE,5.788210895,0.7162,TRUE,296.8252318,,
mp-1347073,YSbO3,30,Y1 Sb1 O3,6.52334656,6.52334656,12.653419,90,90,120.0000057,hex_,P6_3cm,1.50E-06,-7.762523986,-2.666128835,0.239881719,FALSE,5.526587137,1.4667,FALSE,466.3150145,,
mp-1389035,YSbO3,10,Y1 Sb1 O3,3.774998721,3.774998721,12.859533,90,90,120.0000126,hex_,P6_3/mmc,0.0030697,-7.745969549,-2.649574398,0.256436156,FALSE,5.412847293,1.4299,FALSE,158.7045549,,
mp-1416619,YSbO3,5,Y1 Sb1 O3,4.250393,4.250393,4.250393,90,90,90,cubic,Pm-3m,1.57E-05,-7.006274104,-1.909878953,0.996131601,FALSE,5.593683733,0,FALSE,76.78692266,,
mp-1215924,YSbTe3,5,Y1 Sb1 Te3,4.350143315,4.350143,10.73297057,78.30784509,101.6921545,119.99999,trig,R3m,4.82E-05,-5.007397758,-0.993795674,0.03225493,FALSE,5.762561332,0.8608,TRUE,171.0130569,,
mp-755165,YScO3,20,Y1 Sc1 O3,5.468448,5.76218,7.995899,90,90,90,ortho,Pnma,1.26E-05,-9.469694941,-3.932606217,0.028696065,FALSE,4.794330595,4.4324,TRUE,251.9522303,,
mp-768479,YScO3,10,Y1 Sc1 O3,3.590589866,3.590589866,12.444239,90,90,119.9999975,hex_,P6_3/mmc,0.0004144,-9.467514688,-3.930425964,0.030876318,FALSE,4.346959576,3.2044,TRUE,138.9410535,,
mp-769007,YScO3,30,Y1 Sc1 O3,6.174025801,6.174025664,12.19474075,89.99999271,90.00000341,120.000053,hex_,P6_3cm,0,-9.478454809,-3.941366085,0.019936197,FALSE,4.500881734,3.1392,TRUE,402.5685491,,
mp-7792,YScS3,20,Y1 Sc1 S3,6.38688086,7.00935017,9.52905468,90,90,90,ortho,Pnma,0,-13.43817316,-2.274756047,0.001807512,FALSE,3.58201748,1.7758,FALSE,426.5956188,,
mp-769404,YSeO3,40,Y1 Se1 O3,12.23956373,5.938537082,8.895160062,73.87316778,90,90,mono,P2_1/c,0,-7.469001202,-2.499224003,0,TRUE,4.616952551,1.8369,FALSE,621.1035251,,
mp-1068587,YSi3Ir,5,Y1 Si3 Ir1,5.714082086,5.714082086,5.714082086,137.135692,137.135692,62.22933937,tet,I4mm,1.00E-07,-7.101415782,-0.776719828,0,TRUE,7.112401625,0,FALSE,85.30545895,,
mp-10284,YSi3Ni,10,Y1 Si3 Ni1,3.916194736,3.96013567,10.65076275,90,100.5938368,90,ortho,Cmmm,2.00E-07,-6.351077852,-0.638041398,0.024345344,FALSE,4.742509563,0,FALSE,162.3636286,"{'voigt': 123.077, 'reuss': 117.055, 'vrh': 120.066}","{'voigt': 86.125, 'reuss': 84.533, 'vrh': 85.329}"
mp-1187862,YSiO3,5,Y1 Si1 O3,3.723507,3.723507,3.723507,90,90,90,cubic,Pm-3m,0.0010811,-8.15080226,-2.795143751,0.736387453,FALSE,5.306999071,0,FALSE,51.62457911,,
mp-1343054,YSnO3,20,Y1 Sn1 O3,5.932529,5.662117,10.26570904,56.89690748,90,90,mono,P2_1/c,9.80E-06,-7.845878461,-2.773369187,0.200435937,FALSE,5.877643126,1.9502,FALSE,288.8621217,,
mp-1376465,YSnO3,30,Y1 Sn1 O3,6.42710594,6.42710594,12.576403,90,90,119.9999994,hex_,P6_3cm,0.0872037,-7.867746203,-2.795236929,0.178568194,FALSE,5.660660024,0,FALSE,449.902076,,
mp-1394022,YSnO3,10,Y1 Sn1 O3,3.710566504,3.710566504,12.716999,90,90,120.000009,hex_,P6_3/mmc,0.0018127,-7.855947505,-2.783438231,0.190366892,FALSE,5.598454404,0,FALSE,151.6336779,,
mp-1412687,YSnO3,5,Y1 Sn1 O3,4.14186,4.14186,4.14186,90,90,90,cubic,Pm-3m,4.68E-05,-7.23591188,-2.163402606,0.810402517,FALSE,5.973757291,0,FALSE,71.05362594,,
mp-989557,YTcN3,5,Y1 Tc1 N3,4.198095212,4.198095212,4.066441,90,90,123.1656064,ortho,Amm2,8.24E-05,-15.54012311,-0.8072201,0.062514452,FALSE,6.336529248,0,FALSE,59.99190857,,
mp-989640,YTcN3,20,Y1 Tc1 N3,7.388381681,7.388381681,6.269962993,72.79971744,72.79971744,82.27238098,mono,C2/c,0.0001346,-15.5773946,-0.8444916,0.025242953,FALSE,4.874826381,0,FALSE,311.921249,,
mp-1216018,YThC3,20,Y1 Th1 C3,7.298962562,7.298962562,7.298962562,109.4712206,109.4712206,109.4712206,cubic,I2_13,0.0018389,-8.545786764,-0.223997519,0.054776611,FALSE,7.921120178,0,FALSE,299.337769,,
mp-1342458,YTiO3,30,Y1 Ti1 O3,6.093029337,6.093029337,12.01894,90,90,119.9999928,hex_,P6_3cm,3.00E-06,-9.455553118,-3.605859812,0.05487435,FALSE,4.76399071,0,FALSE,386.4233567,,
mp-1436662,YTiO3,5,Y1 Ti1 O3,3.89302,3.89302,3.89302,90,90,90,cubic,Pm-3m,0.0011034,-9.207710448,-3.358017142,0.30271702,FALSE,5.200236792,0,FALSE,59.00107229,,
mp-1443298,YTiO3,10,Y1 Ti1 O3,3.521960146,3.521960146,12.110846,90,90,120.0000027,hex_,P6_3/mmc,0.4487968,-9.43245466,-3.582761354,0.077972808,FALSE,4.716708576,0,FALSE,130.0990053,,
mp-4355,YTiO3,20,Y1 Ti1 O3,5.347706,5.717622,7.702009,90,90,90,ortho,Pnma,4.0079207,-9.452474175,-3.602780869,0.057953293,FALSE,5.211419462,0,FALSE,235.4978709,"{'voigt': 185.843, 'reuss': 182.691, 'vrh': 184.267}","{'voigt': 78.711, 'reuss': 77.266, 'vrh': 77.988}"
mp-753995,YTmO3,20,Y1 Tm1 O3,5.664251,5.922676,8.305271,90,90,90,ortho,Pnma,0,-9.100417022,-3.933321823,0.088650591,FALSE,7.290992135,4.582,TRUE,278.6212737,,
mp-766256,YTmO3,40,Y1 Tm1 O3,9.0889317,9.0889317,10.49381613,54.73571962,54.73571962,70.53574568,mono,C2,0,-9.185792317,-4.018697118,0.003275295,FALSE,7.030105821,4.1556,FALSE,577.921746,,
mp-768353,YTmO3,30,Y1 Tm1 O3,6.383788363,6.383788363,12.699695,90,90,120.0000038,hex_,P6_3cm,0.0007475,-9.11284849,-3.945753291,0.076219122,FALSE,6.798471705,3.1706,FALSE,448.2093042,,
mp-1375509,YVO3,30,Y1 V1 O3,6.146660253,6.146660253,12.056513,90,90,120.0000027,hex_,P6_3cm,12.0000095,-9.272332514,-3.184956397,0.080721507,FALSE,4.74428208,1.1014,TRUE,394.485238,,
mp-1402500,YVO3,10,Y1 V1 O3,3.512669606,3.512669606,12.419869,90,90,119.9999926,hex_,P6_3/mmc,3.9405715,-9.199071232,-3.111695115,0.153982789,FALSE,4.700647873,0,FALSE,132.7156948,,
mp-1504764,YVO3,5,Y1 V1 O3,3.863003,3.863003,3.995935,90,90,90,tet,P4/mmm,1.9994083,-8.999762156,-2.912386039,0.353291865,FALSE,5.230961248,0,FALSE,59.63050756,,
mp-18883,YVO3,20,Y1 V1 O3,5.274392604,5.659848681,7.512776293,89.92957948,90.00384684,90.00254289,ortho,Pnma,7.9999996,-9.353054021,-3.265677904,0,TRUE,5.563301518,0,FALSE,224.2732113,,
mp-989407,YWN3,10,Y1 W1 N3,3.59485,6.01453,6.13574,90,90,90,ortho,Pmc2_1,1.90E-06,-20.99654295,-1.183013483,0.038582183,FALSE,7.879840413,1.5151,FALSE,132.6628788,,
mp-989576,YWN3,10,Y1 W1 N3,5.64312981,5.64312981,5.643130104,59.32152713,59.32152713,59.32152365,trig,R3c,0.0002686,-20.98918538,-1.175655907,0.045939759,FALSE,8.35569462,1.5404,FALSE,125.1077692,,
mp-989609,YWN3,10,Y1 W1 N3,6.84880045,6.84880045,6.07064,90,90,150.7070176,ortho,Cmcm,0.0011388,-21.0126811,-1.199151632,0.022444034,FALSE,7.503255654,1.1259,FALSE,139.3211643,"{'voigt': 149.474, 'reuss': 140.129, 'vrh': 144.802}","{'voigt': 72.377, 'reuss': 66.872, 'vrh': 69.624}"
mp-989615,YWN3,20,Y1 W1 N3,7.260720607,7.260720607,6.239089099,74.17254931,74.17254931,81.51557641,mono,C2/c,0,-21.03512514,-1.221595666,0,TRUE,6.888864976,2.2798,FALSE,303.4933381,,
mp-989617,YWN3,10,Y1 W1 N3,7.848330104,7.848330104,3.76367,90,90,139.1943685,ortho,Ama2,2.60E-06,-21.01078854,-1.197259064,0.024336602,FALSE,6.900149604,1.4128,FALSE,151.4984998,,
mp-989645,YWN3,10,Y1 W1 N3,3.64212024,5.715582021,7.93503627,71.74001636,90,90,mono,P2_1/m,0,-21.01533797,-1.201808497,0.019787169,FALSE,6.664109199,1.4067,TRUE,156.8645234,,
mp-1369924,YWO3,20,Y1 W1 O3,5.546253,5.907121,8.014148,90,90,90,ortho,Pnma,11.9986986,-9.593102344,-2.730881395,0.219146677,FALSE,8.113996116,2.2587,TRUE,262.5626228,,
mp-1375712,YWO3,30,Y1 W1 O3,6.215153781,6.215153781,12.631849,90,90,119.9999977,hex_,P6_3cm,15.874261,-9.422868965,-2.560648016,0.389380055,FALSE,7.56236494,0,FALSE,422.5725917,,
mp-1401965,YWO3,10,Y1 W1 O3,3.608579176,3.608579176,12.69004,90,90,119.9999849,hex_,P6_3/mmc,5.5214355,-9.407761546,-2.545540597,0.404487474,FALSE,7.443403045,0,FALSE,143.1087427,,
mp-1402304,YWO3,5,Y1 W1 O3,4.103411,4.103411,4.103411,90,90,90,cubic,Pm-3m,2.982423,-9.008857254,-2.146636305,0.803391766,FALSE,7.708549245,0,FALSE,69.09315988,,
mp-1215965,YZrO3,40,Y1 Zr1 O3,9.078940373,9.078940373,9.078940373,109.5791561,109.4233803,109.4111796,ortho,I2_12_12_1,0.0019197,-9.583364237,-3.603229208,0.123909629,FALSE,5.260600634,0.5552,TRUE,576.0795248,,
mp-766243,YZrO3,40,Y1 Zr1 O3,9.051403481,9.051403481,10.4478815,54.78788823,54.78788823,70.17659657,mono,C2,0.0008863,-9.625443379,-3.64530835,0.081830488,FALSE,5.304086945,0.427,FALSE,571.3564549,,
mp-1246464,Zn3SbN,10,Zn3 Sb1 N1,5.91422936,6.063679359,6.10398884,120.2201595,90,119.187976,ortho,Imma,0,-12.09330171,0.220073129,0.266113633,FALSE,7.061088218,0,FALSE,156.1483136,,
mp-14099,ZnAgF3,5,Zn1 Ag1 F3,4.073079,4.073079,4.073079,90,90,90,cubic,Pm-3m,7.70E-06,-9.861295724,-1.933807049,0.053571894,FALSE,5.65877599,1.5852,FALSE,67.57226876,,
mp-998537,ZnAgF3,10,Zn1 Ag1 F3,6.267512397,6.267512396,6.267512426,51.09539145,51.09539134,51.09540754,trig,R-3,0,-9.903888742,-1.976400066,0.010978876,FALSE,5.559655034,1.3463,TRUE,137.5539776,,
mp-971700,ZnAuO3,5,Zn1 Au1 O3,3.934248,3.934248,3.934248,90,90,90,cubic,Pm-3m,2.7649142,-4.029493814,-0.153992089,0.791294254,FALSE,8.463478775,0,FALSE,60.89549964,"{'voigt': 98.68, 'reuss': 98.68, 'vrh': 98.68}","{'voigt': 13.029, 'reuss': -4.665, 'vrh': 4.182}"
mp-971704,ZnBO3,5,Zn1 B1 O3,3.378806,3.378806,3.378806,90,90,90,cubic,Pm-3m,0.0177717,-5.595359676,-1.038755997,1.125581286,FALSE,5.347423239,0,FALSE,38.57356425,"{'voigt': 227.552, 'reuss': 227.552, 'vrh': 227.552}","{'voigt': 48.195, 'reuss': -56.994, 'vrh': -4.4}"
mp-1378105,ZnBiO3,20,Zn1 Bi1 O3,5.590447,5.651786,10.0190241,57.15133302,90,90,mono,P2_1/c,0.0048633,-5.510322412,-1.511590225,0.080627896,FALSE,8.051848164,0.8808,FALSE,265.9450071,,
mp-971706,ZnBiO3,5,Zn1 Bi1 O3,3.911416,3.911416,3.911416,90,90,90,cubic,Pm-3m,0.0004694,-5.210530708,-1.211798521,0.3804196,FALSE,8.945928089,0,FALSE,59.84143837,"{'voigt': 152.502, 'reuss': 152.502, 'vrh': 152.502}","{'voigt': 60.566, 'reuss': 58.869, 'vrh': 59.718}"
mp-9812,ZnCO3,10,Zn1 C1 O3,5.660201746,5.660201979,5.660201416,48.55208898,48.55208757,48.55209382,trig,R-3c,0,-6.888936604,-1.822478181,0,TRUE,4.456983342,3.5639,FALSE,93.45393807,,
mp-10271,ZnCo3C,5,Zn1 Co3 C1,3.72687582,3.72706281,3.72692445,90,90,90,cubic,Pm-3m,2.95169,-6.379973716,-0.002241864,0.020153372,FALSE,8.154463016,0,FALSE,51.76809968,"{'voigt': 227.96, 'reuss': 227.96, 'vrh': 227.96}","{'voigt': 117.952, 'reuss': 109.834, 'vrh': 113.893}"
mp-1369159,ZnCoO3,20,Zn1 Co1 O3,4.978133,5.032938,7.286572,90,90,90,ortho,Pnma,3.9932652,-5.852598519,-1.205189849,0.17706181,FALSE,6.270249704,0,FALSE,182.5624,,
mp-753026,ZnCoO3,20,Zn1 Co1 O3,6.420815165,6.420815165,5.091030032,84.76825136,84.76825136,83.87081622,mono,C2/c,4.0109548,-5.973560132,-1.326151463,0.056100196,FALSE,5.526971835,0.2135,FALSE,207.1137449,,
mp-758652,ZnCoO3,10,Zn1 Co1 O3,5.390801675,5.390801675,5.390801088,54.53040113,54.53040113,54.53040507,trig,R-3,1.956136,-5.947583421,-1.300174752,0.082076907,FALSE,5.921827223,0,FALSE,96.65191093,,
mp-1341277,ZnCrO3,20,Zn1 Cr1 O3,5.105534018,5.127049013,7.646973043,90.00792296,90.0093775,89.99868944,ortho,Pnma,7.999496,-6.990599378,-1.839264558,0.139117741,FALSE,5.488517664,0.0242,FALSE,200.1696328,,
mp-1100778,ZnCuO3,5,Zn1 Cu1 O3,3.735142,3.735142,3.735142,90,90,90,cubic,Pm-3m,0.1703835,-4.581666934,-0.541100275,0.607842441,FALSE,5.638793192,0,FALSE,52.1100334,,
mp-10266,ZnFe3C,5,Zn1 Fe3 C1,3.77289,3.77289,3.77289,90,90,90,cubic,Pm-3m,4.0122102,-7.167564614,0.012129933,0.024618005,FALSE,7.573775786,0,FALSE,53.70595333,,
mp-1373518,ZnFeO3,20,Zn1 Fe1 O3,5.156405,5.205407,7.588825,90,90,90,ortho,Pnma,16.0000001,-6.333410405,-1.418680838,0.161017123,FALSE,5.51908599,0,FALSE,203.6930685,,
mp-755099,ZnFeO3,10,Zn1 Fe1 O3,5.497108043,5.497108043,5.497107604,55.65057931,55.65057931,55.65058378,trig,R-3,7.9938114,-6.380725602,-1.465996035,0.113701926,FALSE,5.32264121,0,FALSE,105.6054237,,
mp-755535,ZnFeO3,20,Zn1 Fe1 O3,6.584160746,6.584160746,5.311600733,84.35940263,84.35940263,85.45456835,mono,C2/c,16.0011146,-6.378590843,-1.463861276,0.115836685,FALSE,4.942058599,0,FALSE,227.4759674,,
mp-971733,ZnGaO3,5,Zn1 Ga1 O3,3.828184,3.828184,3.828184,90,90,90,cubic,Pm-3m,0.9983861,-4.974319698,-1.147975169,0.734074651,FALSE,5.420391503,0,FALSE,56.10200872,,
mp-1016930,ZnGeO3,5,Zn1 Ge1 O3,3.721961,3.721961,3.721961,90,90,90,cubic,Pm-3m,0.0003773,-5.555858568,-1.410527672,0.61497333,FALSE,5.991792726,0,FALSE,51.56030223,"{'voigt': 190.693, 'reuss': 190.693, 'vrh': 190.693}","{'voigt': 78.838, 'reuss': 75.026, 'vrh': 76.932}"
mp-1020631,ZnGeO3,10,Zn1 Ge1 O3,5.309779935,5.309779935,5.309780042,57.32585723,57.32585723,57.3258547,trig,R3c,0.000958,-6.039638132,-1.894307236,0.131193766,FALSE,6.219859987,1.3849,TRUE,99.33942066,,
mp-8285,ZnGeO3,10,Zn1 Ge1 O3,5.524563003,5.524563003,5.52456282,54.33987945,54.33987945,54.33987931,trig,R-3,2.54E-05,-6.111723113,-1.966392217,0.059108785,FALSE,5.970667052,2.1201,FALSE,103.4854703,"{'voigt': 18544796811.253, 'reuss': 85825949.289, 'vrh': 9315311380.271}","{'voigt': -35945735341.801, 'reuss': 630505365.397, 'vrh': -17657614988.202}"
mp-1016926,ZnIrO3,5,Zn1 Ir1 O3,3.907016,3.907016,3.907016,90,90,90,cubic,Pm-3m,0.6734957,-5.698363244,-0.709951083,0.762944267,FALSE,8.509445632,0,FALSE,59.63971635,"{'voigt': 201.293, 'reuss': 201.293, 'vrh': 201.293}","{'voigt': 46.206, 'reuss': 45.716, 'vrh': 45.961}"
mp-1379617,ZnMoO3,20,Zn1 Mo1 O3,5.313914,5.338543,7.97055,90,90,90,ortho,Pnma,7.9991033,-7.232922127,-1.84306678,0.086225978,FALSE,6.149654094,0,FALSE,226.1130131,,
mp-1207389,ZnNF3,5,Zn1 N1 F3,3.996138,3.996138,3.996138,90,90,90,cubic,Pm-3m,2.4579736,-3.637168648,-0.570676996,1.091291609,FALSE,3.549578376,0,FALSE,63.81480292,,
mp-16290,ZnNi3C,5,Zn1 Ni3 C1,3.766253,3.766253,3.766253,90,90,90,cubic,Pm-3m,0.0017246,-5.625223294,-0.059459465,0.042528749,FALSE,7.879495611,0,FALSE,53.42302453,,
mp-1069270,ZnNi3N,5,Zn1 Ni3 N1,3.72701343,3.72701343,3.72701343,90,90,90,cubic,Pm-3m,3.50E-06,-5.608231692,-0.220545413,0,TRUE,8.195022677,0,FALSE,51.77056123,,
mp-1378884,ZnNiO3,20,Zn1 Ni1 O3,5.053746,5.156729,7.368083,90,90,90,ortho,Pnma,2.10E-06,-5.408729711,-1.03197705,0.187397397,FALSE,5.953183159,0,FALSE,192.0181268,,
mp-1016836,ZnOsO3,5,Zn1 Os1 O3,3.896879,3.896879,3.896879,90,90,90,cubic,Pm-3m,0.1581775,-6.425465258,-0.959266447,0.56313372,FALSE,8.52026912,0,FALSE,59.17670271,"{'voigt': 208.753, 'reuss': 208.753, 'vrh': 208.753}","{'voigt': 51.95, 'reuss': 49.439, 'vrh': 50.694}"
mp-3342,ZnPS3,10,Zn1 P1 S3,6.010460421,6.010460421,7.492588346,82.38528955,82.38528955,119.9964382,mono,C2/m,0.0001213,-8.900621562,-0.497086329,0.025522435,FALSE,2.829460589,1.98,FALSE,226.0380642,"{'voigt': 27.382, 'reuss': 2.61, 'vrh': 14.996}","{'voigt': 16.619, 'reuss': 1.964999999999999, 'vrh': 9.292}"
mp-1078329,ZnPbO3,10,Zn1 Pb1 O3,5.516786621,5.516786621,5.822193786,61.72056132,61.72056132,59.99999255,trig,R3c,0,-5.436857545,-1.473602806,0.022545058,FALSE,8.288778142,0,FALSE,128.4582049,,
mp-1016880,ZnRhO3,5,Zn1 Rh1 O3,3.891291,3.891291,3.891291,90,90,90,cubic,Pm-3m,1.2274483,-5.378909364,-0.685322465,0.762410017,FALSE,6.096070584,0,FALSE,58.92249508,"{'voigt': 161.218, 'reuss': 161.218, 'vrh': 161.218}","{'voigt': 3.338, 'reuss': 130.364, 'vrh': 66.851}"
mp-1348382,ZnSbO3,20,Zn1 Sb1 O3,8.063739,5.490532,5.5597901,88.33332232,90,90,mono,P2_1/m,0.000607,-5.708569843,-1.66204427,0.161283417,FALSE,6.348342089,0.3548,FALSE,246.0512161,,
mp-4682,ZnSeO3,20,Zn1 Se1 O3,5.135797,6.004009,7.810489,90,90,90,ortho,Pnma,0.00141,-5.360195821,-1.4402882,0.062141493,FALSE,5.305333673,3.4442,FALSE,240.8393292,,
mp-5338,ZnSeO3,40,Zn1 Se1 O3,6.21569912,7.21441768,12.01209078,90,90,90,ortho,Pbca,0,-5.422337314,-1.502429693,0,TRUE,4.74416993,3.9227,FALSE,538.6539781,,
mp-1016876,ZnSiO3,5,Zn1 Si1 O3,3.542246,3.542246,3.542246,90,90,90,cubic,Pm-3m,1.03E-05,-6.420110908,-2.114321977,0.580513833,FALSE,5.286241207,0,FALSE,44.4463555,"{'voigt': 235.713, 'reuss': 235.713, 'vrh': 235.713}","{'voigt': 118.072, 'reuss': 96.781, 'vrh': 107.427}"
mp-1020623,ZnSiO3,10,Zn1 Si1 O3,5.432333854,5.432333854,5.432334293,52.52246245,52.52246245,52.5224667,trig,R-3,0.0006621,-6.850865412,-2.545076481,0.149759329,FALSE,5.02798252,3.5938,FALSE,93.45862086,,
mp-1178612,ZnSiO3,20,Zn1 Si1 O3,7.55239864,7.55239864,7.55239864,137.0985361,102.2734498,93.14694167,ortho,Ibam,0,-6.962258669,-2.656469738,0.038366073,FALSE,3.45771142,3.5718,FALSE,271.803083,,
mp-562182,ZnSiO3,20,Zn1 Si1 O3,6.886753997,6.886753997,5.372906616,73.7249308,73.7249308,86.56440031,mono,C2/c,0.004091,-6.95038914,-2.644600209,0.050235601,FALSE,4.003285824,3.4371,FALSE,234.7613099,,
mp-619034,ZnSiO3,80,Zn1 Si1 O3,5.336361,9.300853,18.492968,90,90,90,ortho,Pbca,7.38E-05,-6.945300628,-2.639511697,0.055324113,FALSE,4.095703545,3.4593,TRUE,917.8561033,,
mp-641917,ZnSiO3,40,Zn1 Si1 O3,9.312416,5.299315,9.428662393,79.48871617,90,90,mono,P2_1/c,0.0018434,-6.941780636,-2.635991705,0.058844105,FALSE,4.108569778,3.3367,FALSE,457.4908909,,
mp-1016902,ZnSnO3,5,Zn1 Sn1 O3,4.028889,4.028889,4.028889,90,90,90,cubic,Pm-3m,0.0172689,-5.29058385,-1.267944154,0.712904694,FALSE,5.893869473,0,FALSE,65.396711,"{'voigt': 151.079, 'reuss': 151.079, 'vrh': 151.079}","{'voigt': 58.077, 'reuss': 49.565, 'vrh': 53.821}"
mp-13334,ZnSnO3,10,Zn1 Sn1 O3,5.659121978,5.659121978,5.65912176,56.42809504,56.42809504,56.4280921,trig,R3c,0.0003536,-5.962064889,-1.939425193,0.041423655,FALSE,6.556764827,1.081,TRUE,117.5700788,,
mp-1337169,ZnSnO3,20,Zn1 Sn1 O3,5.380528,5.407724,7.940176,90,90,90,ortho,Pnma,0.0001366,-5.920646311,-1.898006614,0.082842234,FALSE,6.673395577,1.1054,FALSE,231.0306195,,
mp-14628,ZnSnO3,10,Zn1 Sn1 O3,5.687614017,5.687614017,5.687614036,56.44175825,56.44175825,56.44176321,trig,R-3,0.0001226,-5.948557964,-1.925918268,0.05493058,FALSE,6.456458301,1.3215,FALSE,119.3966291,"{'voigt': -343510537.193, 'reuss': 1751.411, 'vrh': -171754392.891}","{'voigt': -2680571215.289, 'reuss': 8668.923, 'vrh': -1340281273.183}"
mp-1093994,ZnSnS3,10,Zn1 Sn1 S3,6.860098149,6.860098149,6.860098689,55.93674715,55.93674715,55.93674573,trig,R3c,0.0001493,-12.05220759,-0.499850861,0.169033203,FALSE,4.501907708,0.3588,FALSE,206.788934,,
mp-16819,ZnTeO3,40,Zn1 Te1 O3,6.32906732,7.33928353,12.32774028,90,90,90,ortho,Pbca,0,-5.482059909,-1.632673405,0.000719504,FALSE,5.591035435,3.6059,FALSE,572.6336391,,
mp-1340971,ZnWO3,20,Zn1 W1 O3,5.330486,5.384023,7.940744,90,90,90,ortho,Pnma,7.9998902,-7.66175593,-1.849404559,0.088955001,FALSE,8.663471529,1.8923,FALSE,227.8950586,,
mp-1427680,ZnWO3,5,Zn1 W1 O3,3.997302339,3.997302339,4.072086,90,90,91.01825563,ortho,Amm2,0.968131,-7.269389574,-1.457038203,0.481321357,FALSE,7.587252204,0,FALSE,65.05524988,,