mp_id,formula,sites,composition,a_edge (angstrom),b_edge (angstrom),c_edge (angstrom),alpha_ang (deg),beta_ang (deg),gamma_ang (deg),crystal_system,space_group,total_magnetisation (bohr),energy_per_atom (eV/atom),formation_energy (eV/atom),energy_above_hull (eV/atom),stable,density (g/cc),band_gap (eV),direct_bandgap,volume (cubic-angstrom),bulk_modulus (GPa),shear_modulus (GPa)
mp-23415,TlFeI3,20,Tl1 Fe1 I3,4.009761,9.824469,16.127104,90,90,90,ortho,Pnma,16.0046212,-3.493837328,-0.411131094,0.147246788,FALSE,6.701062411,0,FALSE,635.3074683,,
mp-505819,TlFeO3,20,Tl1 Fe1 O3,5.40263203,5.545733,7.929211044,90.00021176,90.01210026,89.99902657,ortho,Pnma,4.38E-05,-6.493558629,-1.35648336,0.04728097,FALSE,8.617568624,0.7037,TRUE,237.5714854,,
mp-1187481,TlGaO3,5,Tl1 Ga1 O3,3.908875,3.908875,3.908875,90,90,90,cubic,Pm-3m,0.1454337,-5.303302328,-1.254612097,0.430104891,FALSE,8.955514512,0,FALSE,59.72488851,,
mp-756909,TlGaO3,20,Tl1 Ga1 O3,5.352391,5.498305,7.87435,90,90,90,ortho,Pnma,2.69E-05,-5.663815099,-1.615124868,0.06959212,FALSE,9.232397774,0.9323,TRUE,231.7348619,,
mp-998153,TlGeBr3,5,Tl1 Ge1 Br3,5.56048449,5.56048449,5.551330213,89.10866834,89.10866834,89.29557562,mono,Cm,3.46E-05,-3.379834652,-0.998766737,0.027999738,FALSE,5.000708813,0.7556,TRUE,171.5875059,,
mp-998746,TlGeBr3,20,Tl1 Ge1 Br3,4.18124614,9.50260894,15.54896534,90,90,90,ortho,Pnma,0,-3.40783439,-1.026766475,0,TRUE,5.555550922,2.2566,FALSE,617.8031052,,
mp-998743,TlGeCl3,10,Tl1 Ge1 Cl3,7.195688,5.743545,8.347123342,70.25346803,90,90,mono,P2_1/m,6.59E-05,-3.792086486,-1.284064496,0,TRUE,3.921404834,3.3207,FALSE,324.6904176,,
mp-998744,TlGeCl3,5,Tl1 Ge1 Cl3,5.328103709,5.328103709,5.321929696,89.22621218,89.22621218,89.16190864,mono,Cm,0.0002251,-3.75932138,-1.25129939,0.032765106,FALSE,4.214938329,1.3779,TRUE,151.0392886,,
mp-998711,TlGeF3,10,Tl1 Ge1 F3,4.781594699,5.84325105,7.156261062,90,105.434773,90,mono,P2_1/m,0,-17.42005459,-2.135605427,0.055158263,FALSE,5.755576338,3.3593,FALSE,192.7350978,,
mp-998712,TlGeF3,5,Tl1 Ge1 F3,4.720373,4.731781003,4.859761237,101.8556466,93.83098951,90.37063819,tri,P1,0.0004676,-17.44722497,-2.162775811,0.027987879,FALSE,5.233987064,3.1344,TRUE,105.9709887,,
mp-29288,TlGeI3,20,Tl1 Ge1 I3,4.454665,10.410241,16.567181,90,90,90,ortho,Pnma,0.0004618,-2.999773986,-0.686466423,0.016987145,FALSE,5.686391016,1.9161,FALSE,768.2887085,,
mp-1187533,TlGeO3,5,Tl1 Ge1 O3,3.862735,3.862735,3.862735,90,90,90,cubic,Pm-3m,0.0013357,-5.733962968,-1.366286371,0.357614412,FALSE,9.364324258,0,FALSE,57.63479386,,
mp-1068746,TlHPd3,5,Tl1 H1 Pd3,4.09795544,4.09795544,4.09795544,90,90,90,cubic,Pm-3m,3.00E-07,-25.37785356,-0.274698002,0,TRUE,12.65954527,0,FALSE,68.81794425,,
mp-1105094,TlHgCl3,20,Tl1 Hg1 Cl3,4.36965245,9.24800615,14.07342645,90,90,90,ortho,Pnma,0,-2.787549608,-1.142198781,0,TRUE,5.971967872,2.671,FALSE,568.7152231,,
mp-998710,TlHgF3,5,Tl1 Hg1 F3,4.526533264,4.519329777,4.540155457,89.7182233,88.13129338,89.5988953,tri,P1,0,-24.07071983,-1.68710488,0.014525399,FALSE,8.264135899,1.805,FALSE,92.82479949,,
mp-998758,TlHgF3,40,Tl1 Hg1 F3,6.20059644,8.82826901,13.07913115,90,90,90,ortho,Pbam,0,-24.08524523,-1.70163028,0,TRUE,8.571632395,2.3394,TRUE,715.9586155,,
mp-1187530,TlHgO3,5,Tl1 Hg1 O3,4.26104,4.26104,4.26104,90,90,90,cubic,Pm-3m,0.0003369,-3.704547296,-0.199541862,0.604699784,FALSE,9.722392327,0,FALSE,77.36541034,,
mp-22981,TlIO3,5,Tl1 I1 O3,4.504218648,4.504218742,4.50421841,88.77705877,88.77706451,88.7770726,trig,R3m,0,-4.716762884,-0.968889335,0,TRUE,6.89684091,2.7633,FALSE,91.31995052,,
mp-546200,TlIO3,5,Tl1 I1 O3,4.249667,4.249667,4.249667,90,90,90,cubic,Pm-3m,0.0006661,-4.47276803,-0.724894481,0.243994854,FALSE,8.206371515,0,FALSE,76.74758198,"{'voigt': 111.81, 'reuss': 111.81, 'vrh': 111.81}","{'voigt': 58.435, 'reuss': 58.211, 'vrh': 58.323}"
mp-998713,TlInCl3,10,Tl1 In1 Cl3,7.689756,7.753678671,8.029580387,62.56501893,62.14230843,60.82755941,tri,P1,2.28E-05,-3.509481564,-1.374230396,0.007009539,FALSE,4.011110588,1.5597,FALSE,352.3510448,,
mp-998732,TlInCl3,5,Tl1 In1 Cl3,5.417827306,5.417827306,5.411900096,89.96436036,89.96436036,90.05411044,mono,Cm,0.002071,-3.449334148,-1.31408298,0.067156955,FALSE,4.448468088,0,FALSE,158.8545741,,
mp-557704,TlNO3,45,Tl1 N1 O3,10.27382548,10.27382475,7.25596693,90,90,120.0000012,trig,P3_1,0.1845773,-6.093866193,-0.983139618,0.004367246,FALSE,6.00228111,2.8695,FALSE,663.2698542,,
mp-5915,TlNO3,40,Tl1 N1 O3,6.18047927,7.91332221,12.19729243,90,90,90,ortho,Pnma,0,-6.098233439,-0.987506864,0,TRUE,5.932115907,2.8457,FALSE,596.5466891,"{'voigt': 21.686, 'reuss': 21.629, 'vrh': 21.657}","{'voigt': 8.919, 'reuss': 7.662, 'vrh': 8.29}"
mp-662551,TlNO3,40,Tl1 N1 O3,7.712155,8.865203,10.549604,90,90,90,ortho,Pnma,6.00E-07,-5.41502172,-0.304295144,0.68321172,FALSE,4.906292947,0,FALSE,721.2745228,,
mp-1205652,TlNiCl3,10,Tl1 Ni1 Cl3,6.860764899,6.860764375,5.86128446,89.99999487,89.99998601,120.0001366,hex_,P6_3/mmc,4,-3.887289324,-1.147845569,0.004469159,FALSE,5.135113879,0.5372,FALSE,238.9284549,,
mp-998761,TlNiF3,5,Tl1 Ni1 F3,4.08734836,4.08734836,4.08737585,90,90,90,cubic,Pm-3m,2.0000013,-17.01746967,-2.111072595,0.000827895,FALSE,7.783389719,3.4347,FALSE,68.28540382,,
mp-1097917,TlNiO3,5,Tl1 Ni1 O3,3.786234375,3.785417352,3.798031366,89.81183948,89.80722819,90.22609065,mono,Cm,0.862486,-5.27181955,-0.672721188,0.365980832,FALSE,9.489480951,0,FALSE,54.4341705,,
mp-1178989,TlNiO3,20,Tl1 Ni1 O3,5.457501,5.327588,9.35948699,55.26711414,90,90,mono,P2_1/c,3.9995118,-5.562365245,-0.963266882,0.075435137,FALSE,9.238944403,0.0965,FALSE,223.6411441,,
mp-1403003,TlNiO3,5,Tl1 Ni1 O3,3.785825963,3.785825963,3.798031139,89.80953029,89.80953029,90.22610265,ortho,Amm2,0.8627952,-5.271887158,-0.672788796,0.365913224,FALSE,9.489480901,0,FALSE,54.43417079,,
mp-18001,TlNiO3,20,Tl1 Ni1 O3,5.327862,5.455579,7.747435,90,90,90,ortho,Pnma,4.0075394,-5.56369848,-0.964600118,0.074101901,FALSE,9.175342851,0,FALSE,225.1913776,,
mp-998781,TlNiO3,5,Tl1 Ni1 O3,3.782724,3.913127,3.934731884,81.97739594,90,90,mono,Pm,0.9862885,-5.33315619,-0.734057828,0.304644192,FALSE,8.956568751,0,FALSE,57.67298152,,
mp-998845,TlNiO3,10,Tl1 Ni1 O3,5.377489547,5.377489547,5.377489531,59.74406927,59.74406927,59.7440703,trig,R3c,2.0017222,-5.535411979,-0.936313617,0.102388403,FALSE,9.450434063,0,FALSE,109.3181584,,
mp-27144,TlPO3,40,Tl1 P1 O3,7.58522238,7.58522238,11.10122861,90,90,90,tet,P-42_1c,0,-6.783894437,-2.257728706,0,TRUE,5.893356114,3.6726,TRUE,638.7158328,,
mp-556932,TlPO3,120,Tl1 P1 O3,11.09322,11.260694,16.272151,90,90,90,ortho,Pbcn,0,-6.771446868,-2.245281136,0.01244757,FALSE,5.555509218,3.725,TRUE,2032.674078,,
mp-8249,TlPS3,10,Tl1 P1 S3,6.980750494,6.999774902,6.999774611,70.36205725,60.08985662,60.08986157,ortho,Immm,0,-4.665118756,-0.624713887,0,TRUE,4.313946314,1.7362,FALSE,255.2443222,"{'voigt': 11.573, 'reuss': 9.933, 'vrh': 10.753}","{'voigt': 5.681, 'reuss': 4.413, 'vrh': 5.047}"
mp-676598,TlPbCl3,40,Tl1 Pb1 Cl3,12.10245801,11.68587727,11.57326289,62.70674612,59.10192143,58.19133245,ortho,Fmm2,0.003436,-3.766107185,-1.440161352,0.052488018,FALSE,5.966137203,2.6014,TRUE,1153.259999,,
mp-27552,TlPbI3,10,Tl1 Pb1 I3,8.071428602,8.071428602,12.008534,90,90,146.1635116,ortho,Cmcm,0.0008087,-3.019440088,-0.888208682,0.011369083,FALSE,6.040287862,2.1427,TRUE,435.6215033,,
mp-998786,TlPdF3,5,Tl1 Pd1 F3,4.27132955,4.271401243,4.272203517,89.54619825,89.95402999,89.78202819,cubic,Pm-3m,2.11E-05,-18.69623311,-1.594088746,0,TRUE,7.835930471,0,FALSE,77.94145138,,
mp-1179620,TlSbO3,10,Tl1 Sb1 O3,11.99235249,6.131959375,7.211124679,62.3262627,143.1106344,99.62165617,tri,P-1,0.0006366,-5.222655056,-0.953783782,0.758883666,FALSE,4.774480947,2.0068,FALSE,260.2488455,,
mp-30058,TlSbO3,10,Tl1 Sb1 O3,7.872914041,7.872914718,7.872913969,39.59483374,39.59483301,39.59483544,trig,R-3,0,-5.980807673,-1.711936399,0.000731049,FALSE,6.96217824,2.4362,TRUE,178.4718965,,
mp-557787,TlSbO3,20,Tl1 Sb1 O3,5.33070696,5.330706616,14.72638829,90,90,120.0000021,trig,P-31c,0,-5.981538722,-1.712667448,0,TRUE,6.857226772,2.4365,TRUE,362.4069017,,
mp-561465,TlSbO3,20,Tl1 Sb1 O3,5.403041455,5.403041455,16.243782,90,90,119.9999933,hex_,P6_322,0.0001021,-5.846771397,-1.577900122,0.134767325,FALSE,6.051326127,2.1502,FALSE,410.6713564,,
mp-1187529,TlSiO3,5,Tl1 Si1 O3,3.704802,3.704802,3.704802,90,90,90,cubic,Pm-3m,0.0012686,-6.38847278,-1.860338148,0.535308244,FALSE,9.158742719,0,FALSE,50.85047421,,
mp-676130,TlSnF3,40,Tl1 Sn1 F3,10.34000475,10.34000475,8.183366199,72.42183243,72.42183243,81.39369261,mono,Cc,0,-19.67674249,-2.217452096,0,TRUE,6.363346285,2.8207,FALSE,793.4841709,,
mp-1205533,TlSnI3,10,Tl1 Sn1 I3,7.890112575,7.890112575,11.79080057,90,90,146.0255723,ortho,Cmcm,0,-2.996075997,-0.805459634,0,TRUE,5.698343986,1.8624,FALSE,410.1888339,,
mp-1187623,TlTcO3,5,Tl1 Tc1 O3,3.990746,3.990746,3.990746,90,90,90,cubic,Pm-3m,0.0003283,-7.017188586,-1.501989771,0.035979122,FALSE,9.154360351,0,FALSE,63.55683485,,
mp-1206817,TlVCl3,10,Tl1 V1 Cl3,6.922125396,6.922121015,6.15463623,90,90,119.9999727,hex_,P6_3/mmc,5.999999,-4.865086014,-1.464888381,0.003316655,FALSE,4.703231545,0.2734,FALSE,255.3946468,,
mp-22330,TlVO3,20,Tl1 V1 O3,5.15348249,5.77053724,11.16164076,90,90,90,ortho,Pbcm,0,-7.268518031,-2.00866579,0.006314271,FALSE,6.069729515,2.9763,FALSE,331.9289204,,
mp-1187621,TlWO3,5,Tl1 W1 O3,4.077202,4.077202,4.077202,90,90,90,cubic,Pm-3m,1.0009275,-7.67704244,-1.642345368,0.157751964,FALSE,10.68733637,0,FALSE,67.77767792,,
mp-998745,TlZnF3,5,Tl1 Zn1 F3,4.124461556,4.115024681,4.117341669,89.97427478,89.9641359,89.98168307,cubic,Pm-3m,0,-16.62163937,-2.32946521,0,TRUE,7.765297258,3.9179,FALSE,69.88057355,,
mp-574239,Tm3AlC,5,Tm3 Al1 C1,5.301577,5.301577,5.301577,90,90,90,cubic,Pm-3m,6.44E-05,-3.824309454,1.460039698,1.824206665,FALSE,6.08223681,0,FALSE,149.0099333,"{'voigt': 39.315, 'reuss': 39.315, 'vrh': 39.315}","{'voigt': 26.065, 'reuss': 7.869, 'vrh': 16.967}"
mp-1018641,Tm3AlN,5,Tm3 Al1 N1,4.65734774,4.65734774,4.65734774,90,90,90,cubic,Pm-3m,2.77E-05,-25.36973389,-1.124935118,0,TRUE,9.004257142,0,FALSE,101.0220081,"{'voigt': 96.02, 'reuss': 96.02, 'vrh': 96.02}","{'voigt': 73.086, 'reuss': 72.57, 'vrh': 72.828}"
mp-10351,Tm3GaC,5,Tm3 Ga1 C1,5.225463,5.225463,5.225463,90,90,90,cubic,Pm-3m,0.001074,-3.947677526,1.193175665,1.642900949,FALSE,6.849329248,0,FALSE,142.6836896,,
mp-21292,Tm3InC,5,Tm3 In1 C1,5.506619,5.506619,5.506619,90,90,90,cubic,Pm-3m,5.32E-05,-3.463179912,1.623888823,1.988349726,FALSE,6.301307212,0,FALSE,166.9763974,,
mp-19847,Tm3InN,5,Tm3 In1 N1,4.70132412,4.70132412,4.70132412,90,90,90,cubic,Pm-3m,7.40E-06,-28.63813744,-1.224040254,0,TRUE,10.15759936,0,FALSE,103.9107742,,
mp-22542,Tm3PbC,5,Tm3 Pb1 C1,4.80484245,4.80484245,4.80484245,90,90,90,cubic,Pm-3m,1.00E-06,-5.836256006,-0.558492606,0,TRUE,10.86816534,0,FALSE,110.9270479,,
mp-21888,Tm3SnC,5,Tm3 Sn1 C1,5.523951,5.523951,5.523951,90,90,90,cubic,Pm-3m,0.0030935,-3.826491924,1.510656433,2.041465626,FALSE,6.280521796,0,FALSE,168.5580322,,
mp-22556,Tm3TlC,5,Tm3 Tl1 C1,5.532385,5.532385,5.532385,90,90,90,cubic,Pm-3m,9.74E-05,-3.367118602,1.642409808,1.953503752,FALSE,7.091993122,0,FALSE,169.3312777,,
mp-1101265,TmAlO3,10,Tm1 Al1 O3,3.431286135,3.431286135,11.458344,90,90,120.0000026,hex_,P6_3/mmc,4.00E-07,-8.33311484,-3.718722775,0.076300968,FALSE,6.93344991,3.5534,FALSE,116.8332203,,
mp-756281,TmAlO3,20,Tm1 Al1 O3,5.09801477,5.3139368,7.30343534,90,90,90,ortho,Pnma,0,-8.390336423,-3.775944359,0.019079384,FALSE,8.188437955,6.0789,TRUE,197.8539217,,
mp-17620,TmBO3,30,Tm1 B1 O3,6.563713942,6.563713942,8.686243,90,90,119.9999994,hex_,P6_3/mcm,0.0021936,-8.401931864,-3.200776611,0.318168114,FALSE,7.001389952,2.3645,FALSE,324.0872159,,
mp-760484,TmBO3,10,Tm1 B1 O3,3.883822942,3.883822942,8.470664,90,90,114.4048009,ortho,Ama2,0,-8.69007493,-3.488919677,0.030025048,FALSE,6.500362494,4.5062,FALSE,116.3556124,,
mp-10134,TmBPd3,5,Tm1 B1 Pd3,4.297151,4.297151,4.297151,90,90,90,cubic,Pm-3m,8.74E-05,-22.94291888,-0.67316622,0.114035311,FALSE,10.44268873,0,FALSE,79.34907065,"{'voigt': 147.36, 'reuss': 147.36, 'vrh': 147.36}","{'voigt': 32.23, 'reuss': 14.287, 'vrh': 23.258}"
mp-5438,TmBRh3,5,Tm1 B1 Rh3,4.15099888,4.15099888,4.15099888,90,90,90,cubic,Pm-3m,0.0025981,-7.473258072,-0.8222947,0,TRUE,11.34022769,0,FALSE,71.52499706,"{'voigt': 186.37, 'reuss': 186.37, 'vrh': 186.37}","{'voigt': 92.827, 'reuss': 86.505, 'vrh': 89.666}"
mp-972395,TmBeO3,5,Tm1 Be1 O3,3.536677,3.536677,3.536677,90,90,90,cubic,Pm-3m,0.9608415,-7.497920196,-2.884760724,0.401418049,FALSE,8.481347432,0,FALSE,44.23705371,,
mp-754323,TmBiO3,10,Tm1 Bi1 O3,6.105165299,6.105165299,6.105165228,58.50968606,58.50968606,58.50969275,trig,R3c,3.65E-05,-7.47916348,-2.835879719,0.03002034,FALSE,9.100934574,3.1128,FALSE,155.4224688,,
mp-755216,TmBiO3,10,Tm1 Bi1 O3,6.09074817,6.09074817,6.090747223,58.47151464,58.47151464,58.47151811,trig,R-3,0.0003227,-7.455337051,-2.81205329,0.053846769,FALSE,9.174080653,2.4418,TRUE,154.1832663,,
mp-1216578,TmBiTe3,5,Tm1 Bi1 Te3,10.97105291,10.97105291,10.97105297,23.05205677,23.05205677,23.0520587,trig,R3m,0.0030749,-34.90564982,-0.930650828,0.023780686,FALSE,7.108305292,1.1145,FALSE,177.7071013,,
mp-561954,TmCoO3,20,Tm1 Co1 O3,5.136062,5.708766,7.360924,90,90,90,ortho,Pnma,3.00E-07,-7.929291278,-2.637331035,0.022681563,FALSE,8.489885076,1.1886,FALSE,215.8265325,,
mp-1187577,TmCrO3,5,Tm1 Cr1 O3,3.833663,3.833663,3.833663,90,90,90,cubic,Pm-3m,2.9999182,-8.644344738,-2.848458345,0.398950168,FALSE,7.925818869,1.9289,FALSE,56.34323776,,
mp-777295,TmCrO3,20,Tm1 Cr1 O3,5.16618224,5.50964451,7.48369507,90,90,90,ortho,Pnma,11.9999998,-9.043294906,-3.247408514,0,TRUE,8.385646497,2.6809,FALSE,213.0146064,,
mp-20651,TmFeO3,20,Tm1 Fe1 O3,5.272516,5.611822,7.672662,90,90,90,ortho,Pnma,20.0012483,-8.433557634,-2.874276493,0.024305635,FALSE,7.980858848,1.6368,FALSE,227.0219556,,
mp-558400,TmFeO3,30,Tm1 Fe1 O3,6.009661295,6.009671987,11.61692875,89.99988475,90.0001335,119.9991896,hex_,P6_3cm,30.0246847,-8.448114513,-2.888833372,0.009748757,FALSE,7.479670758,0,FALSE,363.3509232,,
mp-1207932,TmGa3Os,15,Tm1 Ga3 Os1,6.34071476,6.34071476,6.34071476,90,90,90,cubic,Pm-3m,9.30E-06,-25.04395881,-0.557037808,0,TRUE,11.10602729,0,FALSE,254.9263043,,
mp-17424,TmGa3Ru,15,Tm1 Ga3 Ru1,6.3337215,6.3337215,6.3337215,90,90,90,cubic,Pm-3m,3.40E-06,-5.147045222,-0.578806804,0,TRUE,9.394766534,0,FALSE,254.0837493,,
mp-1101269,TmGaO3,10,Tm1 Ga1 O3,3.494478242,3.494478242,11.703904,90,90,120.0000046,hex_,P6_3/mmc,0.0008841,-7.652406986,-3.181510883,0.028288576,FALSE,7.691538031,2.4668,FALSE,123.773036,,
mp-754578,TmGaO3,20,Tm1 Ga1 O3,5.240913,5.57066,7.599725,90,90,90,ortho,Pnma,0.0006013,-7.629820236,-3.158924132,0.050875326,FALSE,8.581392196,3.9298,TRUE,221.8765888,,
mp-768469,TmGaO3,30,Tm1 Ga1 O3,5.955728785,5.955732629,11.59530603,90.00002538,90.00003117,120.0000325,hex_,P6_3cm,0,-7.674284367,-3.203388263,0.006411195,FALSE,8.018214694,2.9311,FALSE,356.1908917,,
mp-1187655,TmGeO3,5,Tm1 Ge1 O3,3.887071,3.887071,3.887071,90,90,90,cubic,Pm-3m,0.0005432,-7.096192958,-2.306310488,0.75388091,FALSE,8.187265195,0,FALSE,58.73100333,,
mp-1101263,TmInO3,20,Tm1 In1 O3,5.459972,5.787809,8.290247,90,90,90,ortho,Pnma,6.55E-05,-7.372834516,-2.955722868,0.086347277,FALSE,8.411016416,2.5259,TRUE,261.9823759,,
mp-1232191,TmMgS3,20,Tm1 Mg1 S3,7.570401534,11.56177,7.124359099,90,125.3627645,90,mono,C2/m,3.9990781,-5.253253786,-1.547643746,0.326130794,FALSE,3.780452325,0.2669,FALSE,508.5283681,,
mp-1232251,TmMgS3,30,Tm1 Mg1 S3,6.624112,6.624111767,17.882397,90,90,120.0000012,trig,R-3,4.3278918,-5.343182042,-1.637572003,0.236202537,FALSE,4.24363998,0,FALSE,679.5347605,,
mp-1238772,TmMgS3,10,Tm1 Mg1 S3,6.965293218,6.965293218,6.621720832,76.52364243,76.52364243,118.6926044,mono,C2/m,0.0006821,-5.217558768,-1.511948729,0.361825811,FALSE,3.835026801,0,FALSE,250.6458692,,
mp-1232151,TmMgSe3,10,Tm1 Mg1 Se3,7.342587473,7.342587473,6.919449879,76.46676671,76.46676671,120.127181,mono,C2/m,6.10E-06,-4.70163947,-1.381498284,0.327320874,FALSE,5.01240932,0,FALSE,284.9846076,,
mp-1232198,TmMgSe3,30,Tm1 Mg1 Se3,6.869924,6.869924255,19.13125,90,90,119.9999988,trig,R-3,1.3145223,-4.820539726,-1.50039854,0.208420618,FALSE,5.480388193,0,FALSE,781.9479858,,
mp-554211,TmMnO3,30,Tm1 Mn1 O3,6.053196567,6.053196567,11.35090639,90.0000004,90.00000095,119.999872,hex_,P6_3cm,23.9999996,-8.795841926,-3.098161969,0,TRUE,7.52022914,0,FALSE,360.1896989,,
mp-554270,TmMnO3,20,Tm1 Mn1 O3,5.270793,5.812419,7.453871,90,90,90,ortho,Pnma,16.0021105,-8.754763078,-3.05708312,0.041078849,FALSE,7.90781237,2.0076,TRUE,228.3572196,,
mp-1079044,TmNiGe3,10,Tm1 Ni1 Ge3,10.88663286,10.88663286,4.04046509,90,90,158.6391793,ortho,Cmmm,5.00E-07,-5.363585776,-0.537241431,0.005338511,FALSE,8.483342856,0,FALSE,174.42398,,
mp-1106304,TmNiO3,20,Tm1 Ni1 O3,5.531035,5.158772,9.011673265,55.34947931,90,90,mono,P2_1/c,4.0001937,-7.548522843,-2.527218608,0.006301209,FALSE,8.654927327,0,FALSE,211.5268716,,
mp-19002,TmNiO3,20,Tm1 Ni1 O3,5.08094633,5.49113582,7.30375113,90,90,90,ortho,Pnma,4.000001,-7.54801587,-2.526711635,0.006808182,FALSE,8.984133817,0,FALSE,203.7758718,,
mp-10714,TmRh3C,5,Tm1 Rh3 C1,4.12603139,4.12603139,4.12603139,90,90,90,cubic,Pm-3m,7.00E-07,-7.69951597,-0.538697854,0,TRUE,11.57570347,0,FALSE,70.24211553,,
mp-1207705,TmRhO3,20,Tm1 Rh1 O3,5.17444652,5.70187168,7.51159096,90,90,90,ortho,Pnma,0,-7.946072353,-2.60793388,0,TRUE,9.585742424,0.9565,TRUE,221.6222056,,
mp-1206773,TmRu3C,5,Tm1 Ru3 C1,4.11425196,4.11425196,4.11425196,90,90,90,cubic,Pm-3m,1.05E-05,-8.56665041,-0.259775492,0,TRUE,11.54411871,0,FALSE,69.64222759,,
mp-1187557,TmScO3,5,Tm1 Sc1 O3,4.001679,4.001679,4.001679,90,90,90,cubic,Pm-3m,0.0005899,-8.53251846,-3.40074774,0.628655032,FALSE,6.786384872,2.5716,TRUE,64.08062583,,
mp-1207696,TmScO3,20,Tm1 Sc1 O3,5.40953,5.708791,7.944283,90,90,90,ortho,Pnma,0.0026546,-9.111843616,-3.980072896,0.049329877,FALSE,7.090336352,4.4168,TRUE,245.3343639,,
mp-768396,TmSeO3,40,Tm1 Se1 O3,12.416586,5.917272,8.733917145,73.9852505,90,90,mono,P2_1/c,0.0012,-7.107140161,-2.542680966,0.021720094,FALSE,6.372803748,1.819,FALSE,616.7971596,,
mp-755525,TmTiO3,20,Tm1 Ti1 O3,5.286485,5.67376,7.650199,90,90,90,ortho,Pnma,4.0007133,-9.096499389,-3.652124087,0.06115532,FALSE,7.665057271,0,FALSE,229.4619594,,
mp-1101279,TmTlO3,20,Tm1 Tl1 O3,5.740998,5.840919,8.490321,90,90,90,ortho,Pnma,0.0007469,-6.846334986,-2.506763663,0.088491442,FALSE,9.829333097,0.736,TRUE,284.7034235,,
mp-755258,TmVO3,20,Tm1 V1 O3,5.19087594,5.62773952,7.48654988,90,90,90,ortho,Pnma,8.0000001,-9.002079601,-3.320021488,0,TRUE,8.135479326,0,FALSE,218.7038156,,
mp-972367,UAlO3,5,U1 Al1 O3,3.766603,3.766603,3.766603,90,90,90,cubic,Pm-3m,3.0021106,-9.212781082,-3.236607311,0.173777165,FALSE,9.726484321,0,FALSE,53.43791981,,
mp-1187784,UBO3,5,U1 B1 O3,3.587809,3.587809,3.587809,90,90,90,cubic,Pm-3m,2.8670162,-8.784558708,-2.221621749,0.973498745,FALSE,10.67285994,0,FALSE,46.18361721,,
mp-1069774,UBRh3,5,U1 B1 Rh3,4.233953,4.233953,4.233953,90,90,90,cubic,Pm-3m,2.0505765,-32.51819937,-0.578784023,0.055236394,FALSE,12.19831411,0,FALSE,75.89935726,,
mp-1187752,UBeO3,5,U1 Be1 O3,3.579678,3.579678,3.579678,90,90,90,cubic,Pm-3m,2.0002984,-9.027323898,-3.05238272,0.439026145,FALSE,10.68063483,0,FALSE,45.87033247,,
mp-1105902,UCoS3,20,U1 Co1 S3,5.902347,6.852509,8.396379,90,90,90,ortho,Pnma,1.7033377,-24.65660051,-1.200347513,0.078939354,FALSE,7.689689976,0,FALSE,339.5989873,,
mp-1188226,UCoSe3,20,U1 Co1 Se3,6.22802,7.165544,8.92309,90,90,90,ortho,Pnma,0.3485383,-6.748046117,-0.965533884,0.119005799,FALSE,8.904457677,0,FALSE,398.2120879,,
mp-22063,UCrS3,20,U1 Cr1 S3,6.2000426,7.1226026,8.92544017,90,90,90,ortho,Pnma,24.0000006,-8.052770543,-1.380863306,0.016900234,FALSE,6.508498798,0,FALSE,394.151361,,
mp-1106185,UCrSe3,20,U1 Cr1 Se3,6.49267439,7.45388811,9.40069327,90,90,90,ortho,Pnma,24.0000007,-7.430784921,-1.144346538,0.018088933,FALSE,7.692633495,0,FALSE,454.9528346,,