mp_id,composition,a_edge (angstrom),b_edge (angstrom),c_edge (angstrom),alpha_ang (deg),beta_ang (deg),gamma_ang (deg),crystal_system,space_group,formation_energy (eV/atom),energy_above_hull (eV/atom),band_gap (eV),A_site,B_site,X_site
mp-8401,Cs1 Mg1 F3,4.252307,4.252307,4.252307,90.0,90.0,90.0,cubic,Pm-3m,-3.431053886,0.057630619,6.7028,Cs,Mg,F
mp-23751,Cs1 Mg1 H3,8.24752906,8.247528437,8.247528802,44.39332444,44.39332696,44.39332498,trig,R-3m,-0.319925287,0.002973088,2.6161,Cs,Mg,H
mp-571020,Cs1 Mg1 H3,6.11707186,8.52803537,9.95206766,90.0,90.0,90.0,ortho,Pmmn,-0.322898375,0.0,2.9535,Cs,Mg,H
mp-29751,Cs1 Mg1 I3,8.29721548,8.297214955,7.03483124,90.0,90.0,119.9999979,hex_,P6_3/mmc,-1.490423142,0.0,3.152,Cs,Mg,I
mp-984756,Cs1 Mg1 O3,4.292401,4.292401,4.292401,90.0,90.0,90.0,cubic,Pm-3m,-1.322233874,0.48208435,0.0,Cs,Mg,O
mp-23048,Cs1 Mn1 Br3,7.65942696,7.659433697,6.5245266,90.0,90.0,120.0000287,hex_,P6_3/mmc,-1.569607816,0.0,0.0,Cs,Mn,Br
mp-23336,Cs1 Mn1 Cl3,10.06014829,10.06014743,10.06014844,42.59069864,42.5907019,42.59070069,trig,R-3m,-1.903108246,0.0,1.4829,Cs,Mn,Cl
mp-558702,Cs1 Mn1 F3,6.21865967,6.218659678,15.0791449,90.00000275,89.99999592,119.9996263,hex_,P6_3/mmc,-2.991121137,0.0,3.4556,Cs,Mn,F
mp-540609,Cs1 Mn1 I3,8.27830944,8.27831801,6.99357684,90.0,90.0,120.0000326,hex_,P6_3/mmc,-1.135058047,0.002209436,0.0,Cs,Mn,I
mp-1183917,Cs1 Mo1 O3,4.13308,4.13308,4.13308,90.0,90.0,90.0,cubic,Pm-3m,-1.777277907,0.373782435,0.0,Cs,Mo,O
mp-1196533,Cs1 N1 O3,9.304298,9.304298,9.304298,90.0,90.0,90.0,cubic,Pa-3,-1.394730799,0.021673316,3.2764,Cs,N,O
mp-22628,Cs1 N1 O3,5.55043639,5.07934978,6.15494142,90.0,90.0,90.0,ortho,Pmmn,-1.412034342,0.004369774,3.0919,Cs,N,O
mp-561851,Cs1 N1 O3,10.84690041,10.84480427,7.680832796,89.99256164,89.99247834,119.9923396,trig,P3_1,-1.416404115,0.0,3.2965,Cs,N,O
mp-998309,Cs1 Na1 F3,4.593457796,4.593457796,4.567736581,86.45145411,86.45145411,87.59780667,mono,Cm,-2.394121876,0.012379129,0.0,Cs,Na,F
mp-998609,Cs1 Na1 F3,4.158445,7.002554,13.573251,90.0,90.0,90.0,ortho,Pnma,-2.406501005,0.0,0.0295,Cs,Na,F
mp-1183929,Cs1 Na1 O3,4.448345,4.448345,4.448345,90.0,90.0,90.0,cubic,Pm-3m,-0.267386927,0.840846187,0.0,Cs,Na,O
mp-1096944,Cs1 Nb1 O3,4.170919,4.170919,4.170919,90.0,90.0,90.0,cubic,Pm-3m,-2.582605147,0.251293347,1.2762,Cs,Nb,O
mp-27556,Cs1 Nb1 O3,16.04611897,5.169600477,9.291497475,86.83904432,90.0,90.0,mono,P2_1/c,-2.833898494,0.0,3.3517,Cs,Nb,O
mp-1183922,Cs1 Nd1 O3,4.717574,4.717574,4.717574,90.0,90.0,90.0,cubic,Pm-3m,-2.149263268,0.281777196,0.0,Cs,Nd,O
mp-1080570,Cs1 Ni1 Br3,7.556074976,7.556077593,6.27613375,89.99994798,90.0000508,119.999737,hex_,P6_3/mmc,-1.297944743,0.0,0.0,Cs,Ni,Br
mp-22950,Cs1 Ni1 Cl3,7.20877398,7.208780297,5.94015344,90.00000375,90.00001846,120.0000326,hex_,P6_3/mmc,-1.533633926,0.0,0.8049,Cs,Ni,Cl
mp-1194078,Cs1 Ni1 F3,6.109167408,6.109167408,14.715549,90.0,90.0,119.9999936,hex_,P6_3/mmc,-2.539912963,0.028610336,0.0,Cs,Ni,F
mp-505492,Cs1 Ni1 F3,8.349917885,8.349917885,8.349918585,43.78677003,43.78677003,43.78677183,trig,R-3m,-2.561104108,0.007419192,5.1948,Cs,Ni,F
mp-557772,Cs1 Ni1 F3,6.2008944,6.200899655,5.19003829,90.0,90.0,120.0000268,hex_,P6_3/mmc,-2.568523299,0.0,5.3618,Cs,Ni,F
mp-611601,Cs1 Ni1 F3,7.429746191,7.429746191,5.42097,90.0,90.0,120.0000017,hex_,P6_3/mmc,-2.47375868,0.09476462,4.3878,Cs,Ni,F
mp-1183933,Cs1 Np1 O3,4.391044,4.391044,4.391044,90.0,90.0,90.0,cubic,Pm-3m,-2.983751933,0.089051284,0.0,Cs,Np,O
mp-1183914,Cs1 Os1 O3,4.055253,4.055253,4.055253,90.0,90.0,90.0,cubic,Pm-3m,-1.322295503,0.241042683,0.0,Cs,Os,O
mp-1213226,Cs1 P1 O3,4.30527062,6.812608573,13.8045881,66.40094052,90.0,90.0,mono,P2_1/c,-2.675831949,0.0,5.4223,Cs,P,O
mp-1213232,Cs1 P1 O3,4.58139663,6.50273785,13.32108231,90.0,90.0,90.0,ortho,Pnma,-2.662695942,0.013136007,5.0865,Cs,P,O
mp-504838,Cs1 P1 S3,7.245292509,7.530680202,7.53068007,74.19901481,61.24588756,61.2458846,ortho,Immm,-0.834306273,0.0,1.9062,Cs,P,S
mp-1183920,Cs1 Pa1 O3,4.42986213,4.42986213,4.42986213,90.0,90.0,90.0,cubic,Pm-3m,-3.459472581,0.0,2.973,Cs,Pa,O
mp-1014168,Cs1 Pb1 Br3,8.19814187,8.19814187,8.373861777,119.308238,119.308238,90.0,tet,I4/mcm,-1.628735636,0.007483645,1.8178,Cs,Pb,Br
mp-1120725,Cs1 Pb1 Br3,8.216920344,8.216920344,6.03736639,90.0,90.0,89.94723878,ortho,Amm2,-1.627142238,0.009077043,1.955,Cs,Pb,Br
mp-567629,Cs1 Pb1 Br3,8.10107841,8.45384704,11.87891123,90.0,90.0,90.0,ortho,Pnma,-1.631634894,0.004584387,2.0121,Cs,Pb,Br
mp-567681,Cs1 Pb1 Br3,4.60907397,9.84551805,16.95083421,90.0,90.0,90.0,ortho,Pnma,-1.636219281,0.0,2.8808,Cs,Pb,Br
mp-600089,Cs1 Pb1 Br3,5.94863632,5.94862291,5.94863323,89.99992044,90.00002976,90.00013908,cubic,Pm-3m,-1.611146259,0.025073022,1.7819,Cs,Pb,Br
mp-1539667,Cs1 Pb1 Cl3,5.75527897,11.13722107,7.875528607,45.00235759,90.0,90.0,tet,P4/mbm,-1.888647685,0.0,2.7365,Cs,Pb,Cl
mp-23037,Cs1 Pb1 Cl3,5.67984477,5.67984477,5.67984477,90.0,90.0,90.0,cubic,Pm-3m,-1.875833573,0.012814112,2.1878,Cs,Pb,Cl
mp-675022,Cs1 Pb1 Cl3,5.676943643,5.676943643,5.676942959,89.68499392,89.68499392,89.68498377,trig,R32,-1.875004771,0.013642914,2.3105,Cs,Pb,Cl
mp-675524,Cs1 Pb1 Cl3,5.76356648,11.13439393,7.867505357,44.95846599,90.0,90.0,ortho,Amm2,-1.8886114,3.63e-05,2.413,Cs,Pb,Cl
mp-20282,Cs1 Pb1 F3,6.66475513,6.664755298,6.664756089,62.28894391,62.28893761,62.28893792,trig,R3c,-2.784892366,0.0,3.3374,Cs,Pb,F
mp-5811,Cs1 Pb1 F3,4.83141123,4.83141123,4.83141123,90.0,90.0,90.0,cubic,Pm-3m,-2.775786149,0.009106217,2.9083,Cs,Pb,F
mp-1069538,Cs1 Pb1 I3,6.27514229,6.27514229,6.27514229,90.0,90.0,90.0,cubic,Pm-3m,-1.240027091,0.025049344,1.4785,Cs,Pb,I
mp-1120768,Cs1 Pb1 I3,8.853381,8.930536,12.757759,90.0,90.0,90.0,ortho,Pnma,-1.249253118,0.015823317,1.6421,Cs,Pb,I
mp-540839,Cs1 Pb1 I3,4.84714164,10.65044663,18.03119927,90.0,90.0,90.0,ortho,Pnma,-1.265076435,0.0,2.5181,Cs,Pb,I
mp-1185545,Cs1 Pb1 O3,4.480574,4.480574,4.480574,90.0,90.0,90.0,cubic,Pm-3m,-1.123600707,0.208596988,0.0,Cs,Pb,O
mp-998306,Cs1 Pd1 Br3,5.333320029,5.332805486,5.331624007,90.02072608,89.99146912,90.01612854,ortho,Amm2,-1.237524953,0.001872894,0.0,Cs,Pd,Br
mp-998307,Cs1 Pd1 Br3,5.278741728,5.279763407,5.280560992,90.01324861,90.01654079,89.9962693,cubic,Pm-3m,-1.237584005,0.001813842,0.0,Cs,Pd,Br
mp-1147710,Cs1 Pd1 Cl3,5.063224,5.063224,5.063224,90.0,90.0,90.0,cubic,Pm-3m,-1.226102103,0.052206694,0.0,Cs,Pd,Cl
mp-29882,Cs1 Pd1 Cl3,9.731227933,9.731118095,9.731146617,127.0591202,113.7644307,89.67807688,ortho,Ibam,-1.270846671,0.007462126,1.4655,Cs,Pd,Cl
mp-1207302,Cs1 Pd1 F3,4.414264,4.414264,4.414264,90.0,90.0,90.0,cubic,Pm-3m,-2.022305603,0.073591718,0.0,Cs,Pd,F
mp-1183913,Cs1 Pd1 O3,4.199705,4.199705,4.199705,90.0,90.0,90.0,cubic,Pm-3m,-0.689377353,0.238677719,0.0,Cs,Pd,O
mp-1183919,Cs1 Pr1 O3,4.754944,4.754944,4.754944,90.0,90.0,90.0,cubic,Pm-3m,-2.123559937,0.281342041,0.0,Cs,Pr,O
mp-1213235,Cs1 Pt1 Br3,5.142124,11.553721,16.00263,90.0,90.0,90.0,ortho,Pnma,-1.016061567,0.254459914,0.0,Cs,Pt,Br
mp-2647156,Cs1 Pu1 O3,6.295903,6.294651,8.783976,90.0,90.0,90.0,tet,P4/mbm,-2.809568491,0.080952522,0.0,Cs,Pu,O
mp-1183926,Cs1 Rb1 O3,4.559767,4.559767,4.559767,90.0,90.0,90.0,cubic,Pm-3m,-0.417808238,0.664383742,0.0,Cs,Rb,O
mp-1183971,Cs1 Ru1 O3,4.070421,4.070421,4.070421,90.0,90.0,90.0,cubic,Pm-3m,-1.269630177,0.378263059,0.0,Cs,Ru,O
mp-1068320,Cs1 S1 O3,5.038275367,5.038275367,5.038275321,77.32926371,77.32926371,77.32926742,trig,R3m,-1.886274233,0.187430761,0.4314,Cs,S,O
mp-561681,Cs1 S1 O3,6.33106207,6.33106359,11.60598051,90.0,90.0,120.0000026,hex_,P6_3mc,-2.073704994,0.0,5.1115,Cs,S,O
mp-1185561,Cs1 Sb1 O3,4.19501,4.19501,4.19501,90.0,90.0,90.0,cubic,Pm-3m,-1.616252429,0.325578188,0.0,Cs,Sb,O
mp-1213644,Cs1 Sc1 Br3,6.24129426,7.90037667,7.900346061,119.9999604,89.9999811,89.99999979,hex_,P6_3/mmc,-2.012299929,0.013903533,0.0,Cs,Sc,Br
mp-998308,Cs1 Sc1 Br3,5.519352,5.522903,5.523968089,89.98971076,90.0,90.0,mono,Pm,-1.928590684,0.097612778,0.0,Cs,Sc,Br
mp-998435,Cs1 Sc1 Br3,4.039991,9.890683,16.90108,90.0,90.0,90.0,ortho,Pnma,-1.942351638,0.083851824,0.0,Cs,Sc,Br
mp-27359,Cs1 Sc1 Cl3,7.524826618,7.524822967,5.96927696,89.99970901,90.00015791,119.9997772,hex_,P6_3/mmc,-2.211137647,0.010033707,0.0,Cs,Sc,Cl
mp-1206489,Cs1 Sc1 I3,6.731541691,8.503741291,8.498150621,120.0308927,90.01295808,89.9984006,hex_,P6_3/mmc,-1.546405179,0.0,0.0,Cs,Sc,I
mp-998413,Cs1 Se1 Br3,9.321875,6.046609,7.684067645,80.62696368,90.0,90.0,mono,P2_1/m,-1.118144679,0.039469539,1.2544,Cs,Se,Br
mp-998415,Cs1 Se1 Br3,5.575018,5.559635,5.560463654,89.91136378,90.0,90.0,mono,Pm,-1.121352935,0.036261283,0.0,Cs,Se,Br
mp-1147745,Cs1 Si1 I3,6.133592124,6.133592124,6.133591975,87.52193411,87.52193411,87.52193314,trig,R3m,-0.938660413,0.105111749,0.832,Cs,Si,I
mp-570957,Cs1 Si1 Te3,8.285141902,8.285141902,13.56096589,84.53407253,84.53407253,117.8988932,mono,Cc,-0.582389612,0.0,1.2613,Cs,Si,Te
mp-1213166,Cs1 Sm1 Br3,8.012571,8.362195,11.650269,90.0,90.0,90.0,ortho,Pnma,-1.95904989,0.088015148,0.0,Cs,Sm,Br
mp-567939,Cs1 Sm1 Cl3,5.499794,5.499794,5.499794,90.0,90.0,90.0,cubic,Pm-3m,-2.156052866,0.116181794,0.0,Cs,Sm,Cl
mp-1205876,Cs1 Sm1 I3,8.555115574,8.555115574,12.017084,90.0,90.0,148.661926,ortho,Cmcm,-1.530204883,0.05909128,0.0,Cs,Sm,I
mp-1184022,Cs1 Sm1 O3,4.654806,4.654806,4.654806,90.0,90.0,90.0,cubic,Pm-3m,-2.18825925,0.282983777,0.0,Cs,Sm,O
mp-1247749,Cs1 Sn1 Br3,8.1224956,8.22973192,11.71381062,90.0,90.0,90.0,ortho,Pnma,-1.573933961,0.0,0.9682,Cs,Sn,Br
mp-27214,Cs1 Sn1 Br3,5.83900561,5.83900561,5.83900561,90.0,90.0,90.0,cubic,Pm-3m,-1.562738822,0.01119514,0.5984,Cs,Sn,Br
mp-1070375,Cs1 Sn1 Cl3,5.56478593,5.56478593,5.56478593,90.0,90.0,90.0,cubic,Pm-3m,-1.556746142,0.022686822,0.9787,Cs,Sn,Cl
mp-27394,Cs1 Sn1 Cl3,5.799722939,7.49022164,16.31739822,90.0,93.18164942,90.0,mono,P2_1/c,-1.579432963,0.0,2.9154,Cs,Sn,Cl
mp-1105915,Cs1 Sn1 F3,6.669265,4.961346,15.32983109,72.22332109,90.0,90.0,mono,P2_1/c,-2.782428454,0.0,3.7852,Cs,Sn,F
mp-998298,Cs1 Sn1 F3,4.772341,4.915838992,5.04052016,94.56653921,92.35238713,91.16891364,tri,P1,-2.755952824,0.02647563,3.099,Cs,Sn,F
mp-998457,Cs1 Sn1 F3,6.639187687,6.639187687,6.639186762,64.60244617,64.60244617,64.60245488,trig,R3c,-2.768861553,0.013566901,3.828,Cs,Sn,F
mp-27381,Cs1 Sn1 I3,4.78277107,10.59766711,17.96459847,90.0,90.0,90.0,ortho,Pnma,-1.180136671,0.003249339,2.0632,Cs,Sn,I
mp-568570,Cs1 Sn1 I3,8.67777634,8.72973079,12.62389428,90.0,90.0,90.0,ortho,Pnma,-1.172326849,0.011059161,0.6175,Cs,Sn,I
mp-614013,Cs1 Sn1 I3,6.286228,6.286228,6.286228,90.0,90.0,90.0,cubic,Pm-3m,-1.18338601,0.0,0.45,Cs,Sn,I
mp-616378,Cs1 Sn1 I3,6.36120441,8.66038717,8.66038717,90.0,90.0,90.0,tet,P4/mbm,-1.171542016,0.011843994,0.5537,Cs,Sn,I
mp-984745,Cs1 Sn1 O3,4.274027,4.274027,4.274027,90.0,90.0,90.0,cubic,Pm-3m,-1.529903016,0.269505732,0.0,Cs,Sn,O
mp-561710,Cs1 Sn1 S3,6.806630875,7.512150706,7.708016994,99.13702219,114.4060213,107.952534,tri,P-1,-0.840742537,0.0,1.6557,Cs,Sn,S
mp-1542038,Cs1 Sn1 Se3,7.214481837,8.113777919,8.117159135,102.6500605,106.4986158,113.7403009,tri,P-1,,,1.1896,Cs,Sn,Se
mp-613162,Cs1 Sn1 Se3,7.160679364,7.595218796,8.107192891,97.88821488,115.0799718,107.5658015,tri,P-1,-0.809443137,0.003953939,1.0499,Cs,Sn,Se
mp-1213104,Cs1 Sr1 Br3,8.21232242,8.50669965,11.79237493,90.0,90.0,90.0,ortho,Pnma,-2.349344953,0.0,4.5563,Cs,Sr,Br
mp-998297,Cs1 Sr1 Br3,5.968694843,5.973740097,5.969721983,89.98402263,89.94558956,89.94529417,mono,Cm,-2.327732297,0.021612656,4.1683,Cs,Sr,Br
mp-998433,Cs1 Sr1 Br3,4.554085013,7.888814629,11.54804055,90.0,90.0,106.7981904,ortho,Cmcm,-2.34704543,0.002299523,4.5637,Cs,Sr,Br
mp-1080233,Cs1 Sr1 Cl3,5.675257343,5.675257343,5.674353518,89.90271566,89.90271566,90.10731875,mono,Cm,-2.527324074,0.015167956,5.0049,Cs,Sr,Cl
mp-1213084,Cs1 Sr1 Cl3,7.87290647,8.03044119,11.26828583,90.0,90.0,90.0,ortho,Pnma,-2.542492029,0.0,5.3123,Cs,Sr,Cl
mp-1213642,Cs1 Sr1 Cl3,5.67282446,5.67282446,5.67282446,90.0,90.0,90.0,cubic,Pm-3m,-2.527514365,0.014977664,4.97,Cs,Sr,Cl
mp-1213645,Cs1 Sr1 Cl3,7.86750071,7.86750071,5.75739201,90.0,90.0,90.0,tet,P4/mbm,-2.539539117,0.002952913,5.0045,Cs,Sr,Cl
mp-998561,Cs1 Sr1 Cl3,7.926297182,7.926296606,7.926297108,60.9945339,60.99453159,60.99453646,trig,R3c,-2.538230045,0.004261984,5.2868,Cs,Sr,Cl
mp-8397,Cs1 Sr1 F3,4.76324701,4.76324701,4.76324701,90.0,90.0,90.0,cubic,Pm-3m,-3.642522589,0.019347564,6.1846,Cs,Sr,F
mp-1080232,Cs1 Sr1 I3,8.487576926,8.487576926,12.32933082,90.0,90.0,146.5816981,ortho,Cmcm,-1.892797331,0.0,3.959,Cs,Sr,I
mp-998417,Cs1 Sr1 I3,6.472272848,6.472272848,6.464808663,89.90800579,89.90800579,89.98905811,mono,Cm,-1.861104313,0.031693018,3.6132,Cs,Sr,I
mp-1183972,Cs1 Sr1 O3,4.929642,4.929642,4.929642,90.0,90.0,90.0,cubic,Pm-3m,-1.383718577,0.43552539,0.0,Cs,Sr,O
mp-1185552,Cs1 Ta1 O3,4.144158,4.144158,4.144158,90.0,90.0,90.0,cubic,Pm-3m,-2.777847274,0.25341569,1.8627,Cs,Ta,O
mp-1225870,Cs1 Ta1 S3,7.427573231,7.427573231,6.03641524,90.0,90.0,120.0000127,hex_,P6_3mc,-1.436079473,0.0,0.5151,Cs,Ta,S
mp-1225880,Cs1 Ta1 Se3,7.684374984,7.684374984,6.18527967,90.0,90.0,119.9999923,hex_,P6_3mc,-1.170652332,0.006590422,0.1213,Cs,Ta,Se
mp-685607,Cs1 Ta1 Se3,6.20693143,7.68985284,13.33275792,90.0,90.0,90.0,ortho,Pnma,-1.177242754,0.0,0.0868,Cs,Ta,Se
mp-1228798,Cs1 Ta1 Te3,6.362924061,8.25951784,8.259457974,120.0075044,89.99997071,89.99872314,hex_,P6_3mc,-0.84419576,0.0,0.0,Cs,Ta,Te
mp-1185551,Cs1 Tb1 O3,4.593958,4.593958,4.593958,90.0,90.0,90.0,cubic,Pm-3m,-2.248598986,0.282758344,0.0,Cs,Tb,O
mp-1183976,Cs1 Te1 O3,4.259985,4.259985,4.259985,90.0,90.0,90.0,cubic,Pm-3m,-1.425636756,0.302410399,0.0,Cs,Te,O
mp-9462,Cs1 Te1 Se3,6.867251,7.711609,13.81637211,83.85481819,90.0,90.0,mono,P2_1/c,-0.752010182,0.0,0.9842,Cs,Te,Se
mp-1183997,Cs1 Th1 O3,4.575334,4.575334,4.575334,90.0,90.0,90.0,cubic,Pm-3m,-2.965679573,0.146533562,0.0,Cs,Th,O
mp-22962,Cs1 Ti1 Br3,7.6265278,7.626528711,6.53842333,90.00003531,90.00001716,119.9999323,hex_,P6_3/mmc,-1.712830008,0.0,0.0,Cs,Ti,Br
mp-28283,Cs1 Ti1 Cl3,7.40115554,7.401156238,5.92382661,90.0,90.0,119.9999924,hex_,P6_3/mmc,-1.948003869,0.0,0.0,Cs,Ti,Cl
mp-567698,Cs1 Ti1 I3,8.269419712,8.269491414,6.998565396,89.99713547,90.00471957,120.0791521,hex_,P6_3/mmc,-1.264795148,0.009522494,0.0,Cs,Ti,I
mp-1183977,Cs1 Ti1 O3,4.106981,4.106981,4.106981,90.0,90.0,90.0,cubic,Pm-3m,-2.360595768,0.349270555,0.0,Cs,Ti,O
mp-1080226,Cs1 Tl1 Br3,5.868631316,5.868631316,5.867295035,89.99558767,89.99558767,90.00080081,mono,Cm,-1.443222246,0.012869426,0.0,Cs,Tl,Br
mp-1112177,Cs1 Tl1 Br3,8.270435931,8.270435931,8.270435931,60.0,60.0,60.0,cubic,Fm-3m,-1.443849902,0.01224177,0.9985,Cs,Tl,Br
mp-1080231,Cs1 Tl1 Cl3,5.579830006,5.579950453,5.580080135,89.99304754,89.99737197,89.98461833,mono,Cm,-1.653838817,0.026746926,0.0,Cs,Tl,Cl
mp-1112176,Cs1 Tl1 Cl3,7.89950887,7.89950887,7.89950887,60.0,60.0,60.0,cubic,Fm-3m,-1.680223662,0.000362081,1.2584,Cs,Tl,Cl
mp-1395579,Cs1 Tl1 Cl3,5.579954267,5.579954267,5.579950212,89.98883282,89.98883282,89.99737164,tet,P4mm,-1.653756335,0.026829408,0.0,Cs,Tl,Cl
mp-1078203,Cs1 Tl1 F3,6.759902998,6.759902998,6.759902998,60.0,60.0,60.0,cubic,Fm-3m,-2.42274345,0.0,2.1858,Cs,Tl,F
mp-2695837,Cs1 Tl1 F3,4.789688557,4.789688557,4.789688249,90.00414871,90.00414871,90.0041462,cubic,Pm-3m,-2.359361046,0.063382404,0.0,Cs,Tl,F
mp-998234,Cs1 Tl1 F3,4.782049794,4.782049794,4.78204949,90.08065736,90.08065736,90.08065486,trig,R3m,-2.357921506,0.064821944,0.0,Cs,Tl,F
mp-998235,Cs1 Tl1 F3,4.796435357,4.796435357,4.796722,90.0,90.0,90.15156832,ortho,Amm2,-2.358479414,0.064264036,0.0,Cs,Tl,F
mp-998240,Cs1 Tl1 F3,3.907275,5.525721,9.570829,90.0,90.0,90.0,ortho,Amm2,-1.545034793,0.877708657,0.0,Cs,Tl,F
mp-1112542,Cs1 Tl1 I3,8.931266349,8.931266349,8.931266349,60.0,60.0,60.0,cubic,Fm-3m,-1.079289856,0.06025468,0.0,Cs,Tl,I
mp-1185544,Cs1 Tl1 O3,4.535003,4.535003,4.535003,90.0,90.0,90.0,cubic,Pm-3m,-0.75677919,0.355340395,0.0,Cs,Tl,O
mp-1206103,Cs1 Tm1 Br3,7.916547,7.916547,5.622052,90.0,90.0,90.0,tet,P4/mbm,-1.887352691,0.124449515,0.0,Cs,Tm,Br
mp-579768,Cs1 Tm1 Cl3,5.312188,5.312188,5.312188,90.0,90.0,90.0,cubic,Pm-3m,-2.104913611,0.201543685,0.0,Cs,Tm,Cl
mp-1207081,Cs1 Tm1 H3,4.451799,4.451799,4.451799,90.0,90.0,90.0,cubic,Pm-3m,-0.262679505,0.318203783,0.0,Cs,Tm,H
mp-1213177,Cs1 Tm1 I3,8.327171,8.702211,12.145298,90.0,90.0,90.0,ortho,Pnma,-1.416304223,0.203747276,0.0,Cs,Tm,I
mp-2647024,Cs1 U1 Br3,5.786103,5.786103,5.786103,90.0,90.0,90.0,cubic,Pm-3m,-1.489380535,0.285750127,0.0,Cs,U,Br
mp-865424,Cs1 U1 O3,4.415419,4.415419,4.415419,90.0,90.0,90.0,cubic,Pm-3m,-3.218684383,0.021469604,0.4571,Cs,U,O
mp-23038,Cs1 V1 Br3,7.62723314,7.62723262,6.47467011,90.0,90.0,119.9999977,hex_,P6_3/mmc,-1.584607574,0.0,0.6528,Cs,V,Br
mp-22977,Cs1 V1 Cl3,7.23788792,7.23789468,6.19426413,90.0,90.0,120.0000255,hex_,P6_3/mmc,-1.915839475,0.0,0.4835,Cs,V,Cl
mp-22991,Cs1 V1 I3,8.23111885,8.231118579,6.9510579,90.0,90.0,119.9862189,hex_,P6_3/mmc,-1.142132292,0.0,0.5973,Cs,V,I
mp-504651,Cs1 V1 O3,5.45086244,5.79445238,12.27054304,90.0,90.0,90.0,ortho,Pbcm,-2.417407265,0.0,3.1105,Cs,V,O
mp-1206517,Cu3 Pd1 N1,3.878729,3.878729,3.878729,90.0,90.0,90.0,cubic,Pm-3m,0.036469496,0.116097427,0.0,Pd,N,Cu
mp-1207194,Cu3 Rh1 N1,3.848768,3.848768,3.848768,90.0,90.0,90.0,cubic,Pm-3m,0.253803013,0.253803013,0.0,Rh,N,Cu
mp-1207091,Cu3 Ru1 N1,3.870965,3.870965,3.870965,90.0,90.0,90.0,cubic,Pm-3m,0.511132489,0.511132489,0.0,Ru,N,Cu
mp-1181705,Cu3 Sn1 Au1,6.858327,6.858327,6.858327,90.0,90.0,90.0,cubic,P2_13,0.104271397,0.177989456,0.0,Sn,Au,Cu
mp-1188802,Cu1 Ag1 F3,5.645573,5.661939717,8.039587759,89.46093088,89.74177006,88.83931961,tri,P-1,-1.524352184,0.017362095,0.0,Cu,Ag,F
mp-998414,Cu1 Ag1 F3,4.008428,4.008428,4.008428,90.0,90.0,90.0,cubic,Pm-3m,-1.506785417,0.034928862,0.0,Cu,Ag,F
mp-998422,Cu1 Ag1 F3,5.513262492,5.513262492,5.513262793,60.9361972,60.9361972,60.93618287,trig,R-3c,-1.541714279,0.0,0.0,Cu,Ag,F
mp-1178368,Cu1 As1 O3,3.214367,4.931474,8.974303,90.0,90.0,90.0,ortho,Pmma,-1.275228908,0.078447759,0.0,Cu,As,O
mp-776320,Cu1 As1 O3,5.787770911,5.787770911,5.787771351,51.32919719,51.32919719,51.32920558,trig,R-3,-1.258795363,0.094881303,0.0,Cu,As,O
mp-1184042,Cu1 B1 O3,3.350959,3.350959,3.350959,90.0,90.0,90.0,cubic,Pm-3m,-0.696853817,1.128113087,0.0,Cu,B,O
mp-1184051,Cu1 Bi1 O3,3.850058,3.850058,3.850058,90.0,90.0,90.0,cubic,Pm-3m,-1.092523053,0.17206631,0.0,Cu,Bi,O
mp-1080068,Cu1 C1 O3,5.386227,2.865461,9.31109154,80.65199597,90.0,90.0,mono,P2_1,-1.309495043,0.129320376,0.0,Cu,C,O
mp-1178374,Cu1 C1 O3,4.357999,4.873467383,6.51079155,72.86113302,72.74109277,67.94206617,tri,P-1,-1.353701092,0.085114327,0.0,Cu,C,O
mp-27249,Cu1 C1 O3,4.641418242,4.641418242,3.091536745,82.3263195,82.3263195,62.5768432,mono,Cm,-1.298404741,0.140410678,0.0,Cu,C,O
mp-758727,Cu1 C1 O3,3.380512,13.83440844,13.84116736,60.19424392,88.8172512,88.79106882,tri,P1,-1.310201934,0.128613484,0.0,Cu,C,O
mp-760536,Cu1 C1 O3,8.105772215,8.104706158,3.258269,90.0,90.0,119.9193836,hex_,P-6,-1.299894482,0.138920937,0.0,Cu,C,O
mp-760595,Cu1 C1 O3,6.804157,6.217696,8.255992178,53.16552501,90.0,90.0,mono,P2_1/c,-1.335809983,0.103005435,0.0463,Cu,C,O
mp-1096939,Cu1 Ge1 I3,7.940096031,7.940096031,7.940096031,118.6404425,118.6404425,92.37140826,tet,I4/mcm,-0.036181141,0.458181769,0.0895,Cu,Ge,I
mp-1096949,Cu1 Ge1 I3,6.32561474,6.32561474,4.333096733,87.31819853,87.31819853,102.5919721,mono,Cm,-0.239376778,0.254986132,0.6691,Cu,Ge,I
mp-1181557,Cu1 Ge1 O3,4.409282,11.702809,3.017142,90.0,90.0,90.0,ortho,Pmma,-1.287257016,0.383854359,0.0,Cu,Ge,O
mp-1181636,Cu1 Ge1 O3,5.025420323,8.253362,5.962912647,90.0,89.90039487,90.0,ortho,Pmna,-1.583694282,0.087417093,0.2041,Cu,Ge,O
mp-1202570,Cu1 Ge1 O3,8.69434,9.836501,11.94106,90.0,90.0,90.0,ortho,Pbam,-1.598490092,0.072621283,0.0,Cu,Ge,O
mp-21344,Cu1 Ge1 O3,2.980992,4.942222,8.745921,90.0,90.0,90.0,ortho,Pmma,-1.590967304,0.080144071,0.0,Cu,Ge,O
mp-554624,Cu1 Ge1 O3,8.745921,9.884445,11.923969,90.0,90.0,90.0,ortho,Pnnm,-1.598613345,0.07249803,0.4475,Cu,Ge,O
mp-554874,Cu1 Ge1 O3,6.855736,4.926898,6.30641935,86.37590648,90.0,90.0,mono,P2_1/c,-1.530489167,0.140622208,0.0,Cu,Ge,O