mp_id,composition,a_edge (angstrom),b_edge (angstrom),c_edge (angstrom),alpha_ang (deg),beta_ang (deg),gamma_ang (deg),crystal_system,space_group,formation_energy (eV/atom),energy_above_hull (eV/atom),band_gap (eV),A_site,B_site,X_site
mp-1200190,Pr1 Si1 P3,5.7318266,5.89937356,25.49814329,90.0,90.0,90.0,ortho,Pna2_1,-0.679500104,0.0,0.2568,Pr,Si,P
mp-1198507,Pr1 Sn3 Ru1,9.78305544,9.78299114,9.78287338,90.00015192,90.00010905,89.99988064,cubic,Pm-3n,-0.478605478,0.0,0.0,Pr,Ru,Sn
mp-1206304,Pr1 Ti1 Ge3,5.90503897,6.270529643,6.270528317,119.9993393,89.99999913,89.99999974,hex_,P6_3/mmc,-0.716862677,0.0,0.0,Pr,Ti,Ge
mp-753948,Pr1 Ti1 O3,5.53697762,5.53697762,5.536977442,61.66746208,61.66746208,61.66745346,trig,R-3c,-3.527339722,0.05882948,0.0,Pr,Ti,O
mp-754696,Pr1 Ti1 O3,3.943236,3.943236,3.943236,90.0,90.0,90.0,cubic,Pm-3m,-3.481524188,0.104645014,0.0,Pr,Ti,O
mp-754046,Pr1 Tl1 O3,4.645081,4.645081,4.645081,90.0,90.0,90.0,cubic,Pm-3m,-1.767120972,0.647732866,0.0,Pr,Tl,O
mp-1201800,Pr1 Tm1 S3,3.95716548,11.01907461,21.48260067,78.57751572,90.0,90.0,mono,P2_1/m,-2.385432279,0.0,0.6481,Pr,Tm,S
mp-978084,Pr1 V1 Ge3,6.23430393,6.23420814,5.77359175,90.00000051,90.00000219,119.9994303,hex_,P6_3/mmc,-0.502769711,0.013583789,0.0,Pr,V,Ge
mp-1069346,Pr1 V1 O3,3.935905,3.935905,3.935905,90.0,90.0,90.0,cubic,Pm-3m,-2.990521863,0.212041934,0.0,Pr,V,O
mp-1209329,Pr1 V1 O3,5.48384877,5.49925769,7.94591615,90.0,90.0,90.0,ortho,Pnma,-3.202563798,0.0,1.3016,Pr,V,O
mp-1173419,Pr1 V1 Sb3,9.40205,8.991986,7.689995,90.0,90.0,90.0,ortho,Pbcm,0.030301137,0.694379732,0.0,Pr,V,Sb
mp-1173554,Pr1 V1 Sb3,6.589296,7.931818,10.514568,90.0,90.0,90.0,ortho,Pbcm,-0.418534511,0.245544084,0.0,Pr,V,Sb
mp-1209337,Pr1 V1 Sb3,6.27206377,6.20187894,13.24995256,90.0,90.0,90.0,ortho,Pbcm,-0.664078595,0.0,0.0,Pr,V,Sb
mp-20097,Pt3 Pb1 C1,4.348043,4.348043,4.348043,90.0,90.0,90.0,cubic,Pm-3m,0.390544909,0.482602848,0.0,Pb,C,Pt
mp-975564,Pu1 B1 O3,3.562941,3.562941,3.562941,90.0,90.0,90.0,cubic,Pm-3m,-2.264849113,0.786705554,0.0,Pu,B,O
mp-1209736,Pu1 Cr1 O3,5.472803,5.61466,7.816719,90.0,90.0,90.0,ortho,Pnma,-2.802689263,0.082013571,0.0,Pu,Cr,O
mp-2647102,Pu1 Cu1 O3,3.821683,3.823684,3.823684,90.0,90.0,90.0,cubic,Pm-3m,-2.001217213,0.471741008,0.0,Pu,Cu,O
mp-1186662,Pu1 Ga1 O3,3.873306,3.873306,3.873306,90.0,90.0,90.0,cubic,Pm-3m,-2.583174226,0.268998241,0.0,Pu,Ga,O
mp-1186797,Pu1 In1 O3,4.148644,4.148644,4.148644,90.0,90.0,90.0,cubic,Pm-3m,-2.103304676,0.657224697,0.0,Pu,In,O
mp-975596,Pu1 Ir1 O3,4.134388,4.134388,4.134388,90.0,90.0,90.0,cubic,Pm-3m,-1.077175329,1.396932768,0.0,Pu,Ir,O
mp-1186787,Pu1 Mg1 O3,3.82791,3.82791,3.82791,90.0,90.0,90.0,cubic,Pm-3m,-2.698261396,0.612902516,0.0,Pu,Mg,O
mp-1188081,Pu1 Ni1 O3,3.777442,3.777442,3.777442,90.0,90.0,90.0,cubic,Pm-3m,-2.067242017,0.515832347,0.0,Pu,Ni,O
mp-1186799,Pu1 Pb1 O3,4.358038,4.358038,4.358038,90.0,90.0,90.0,cubic,Pm-3m,-2.469338893,0.214490286,0.0,Pu,Pb,O
mp-975588,Pu1 Pt1 O3,4.054549,4.054549,4.054549,90.0,90.0,90.0,cubic,Pm-3m,-1.523519267,0.861694935,0.0,Pu,Pt,O
mp-510492,Pu1 Rh3 C1,4.18414713,4.20821912,4.18396986,90.0,90.0,90.0,cubic,Pm-3m,-0.116106139,0.12076639,0.0,Pu,C,Rh
mp-19828,Pu1 Ru3 C1,4.167104,4.167104,4.167104,90.0,90.0,90.0,cubic,Pm-3m,0.328929129,0.328929129,0.0,Pu,C,Ru
mp-1186801,Pu1 Sb1 O3,4.315703,4.315703,4.315703,90.0,90.0,90.0,cubic,Pm-3m,-2.023732903,0.656019842,0.0,Pu,Sb,O
mp-1186812,Pu1 Ti1 O3,3.917506,3.917506,3.917506,90.0,90.0,90.0,cubic,Pm-3m,-3.223825307,0.080421021,0.0,Pu,Ti,O
mp-2647162,Pu1 Tl1 O3,6.131711,6.130994,8.657264,90.0,90.0,90.0,tet,P4/mbm,-2.518833283,0.0,0.0,Pu,Tl,O
mp-1219701,Pu1 U1 C3,7.020534629,7.020505766,7.020486837,109.4311128,109.4523797,109.5304483,cubic,I2_13,0.003571364,0.070238071,0.0,Pu,U,C
mp-1209729,Pu1 V1 O3,5.440206,5.761251,7.769389,90.0,90.0,90.0,ortho,Pnma,-2.892695519,0.047993956,0.0,Pu,V,O
mp-4405,Rb3 Au1 O1,5.50932825,5.50932825,5.50932825,90.0,90.0,90.0,cubic,Pm-3m,-0.816015088,0.0,0.1979,Au,O,Rb
mp-30055,Rb3 Br1 O1,5.47741978,5.47741978,5.47741978,90.0,90.0,90.0,cubic,Pm-3m,-1.500405602,0.002794593,0.3851,Br,O,Rb
mp-754892,Rb3 Cl1 O1,5.533679,5.533679,5.533679,90.0,90.0,90.0,cubic,Pm-3m,-1.552756705,0.041447582,0.4794,Cl,O,Rb
mp-755428,Rb3 Cl1 O1,8.71371812,4.32145197,15.72080491,90.0,90.0,90.0,ortho,Pnma,-1.594204288,0.0,1.2234,Cl,O,Rb
mp-756979,Rb3 Cl1 O1,7.718872,7.737949,10.958862,90.0,90.0,90.0,ortho,Pnma,-1.579044078,0.01516021,0.9367,Cl,O,Rb
mp-772199,Rb3 Cl1 O1,7.745880126,7.745880126,19.740944,90.0,90.0,120.0000011,hex_,P6_3/mmc,-1.552600007,0.041604281,0.612,Cl,O,Rb
mp-29019,Rb3 I1 O1,7.901286808,7.901302717,19.71391187,90.00240118,89.99696374,119.9995519,hex_,P6_3/mmc,-1.402316398,0.0,0.634,I,O,Rb
mp-975463,Rb1 Ac1 O3,4.636158,4.636158,4.636158,90.0,90.0,90.0,cubic,Pm-3m,-2.226777475,0.180333471,0.0,Rb,Ac,O
mp-998212,Rb1 Ag1 Br3,5.445471227,5.448177134,5.447170082,90.16348531,90.09040842,90.00257384,mono,Cm,-1.209148419,0.0,0.0,Rb,Ag,Br
mp-998226,Rb1 Ag1 Br3,5.446824445,5.446824445,5.447169747,89.87304177,89.87304177,90.0025736,tet,P4mm,-1.208966407,0.000182012,0.0,Rb,Ag,Br
mp-1975771,Rb1 Ag1 Cl3,5.08785996,5.08795536,5.084282022,90.0552484,90.0,90.0,cubic,Pm-3m,-1.41683446,0.001968154,0.0,Rb,Ag,Cl
mp-998201,Rb1 Ag1 Cl3,5.165475,5.167096,5.169283149,89.9367553,90.0,90.0,mono,Pm,-1.418802614,0.0,0.0,Rb,Ag,Cl
mp-1055491,Rb1 Ag1 F3,4.352208895,6.145367685,6.144904236,119.9466536,90.06301513,44.90681261,cubic,Pm-3m,-2.13113856,0.0,0.0,Rb,Ag,F
mp-7767,Rb1 Ag1 F3,6.152127494,6.152127444,6.152127544,90.35099543,119.797568,119.7975524,tet,I4/mcm,-2.129984956,0.001153604,0.0,Rb,Ag,F
mp-867844,Rb1 Ag1 F3,4.295127694,4.295127694,4.364427,90.0,90.0,104.566234,ortho,Cmmm,-2.016747499,0.114391061,0.0,Rb,Ag,F
mp-975421,Rb1 Ag1 O3,4.255792,4.255792,4.255792,90.0,90.0,90.0,cubic,Pm-3m,-0.453735537,0.353712061,0.0,Rb,Ag,O
mp-975427,Rb1 Al1 O3,3.94407,3.94407,3.94407,90.0,90.0,90.0,cubic,Pm-3m,-1.925373273,0.379654708,0.0,Rb,Al,O
mp-975425,Rb1 As1 O3,3.939416,3.939416,3.939416,90.0,90.0,90.0,cubic,Pm-3m,-1.358327302,0.205453434,0.0,Rb,As,O
mp-1110999,Rb1 Au1 Br3,5.43699,5.43699,5.43699,90.0,90.0,90.0,cubic,Pm-3m,-1.138901488,0.046297393,0.0,Rb,Au,Br
mp-27300,Rb1 Au1 Br3,7.400640239,7.349293435,8.4963451,62.5645301,64.18166802,59.76861089,mono,C2/m,-1.185198882,0.0,0.7293,Rb,Au,Br
mp-1110791,Rb1 Au1 Cl3,5.163533,5.163533,5.163533,90.0,90.0,90.0,cubic,Pm-3m,-1.322807997,0.053702937,0.0,Rb,Au,Cl
mp-1111644,Rb1 Au1 F3,4.514405,4.514405,4.514405,90.0,90.0,90.0,cubic,Pm-3m,-1.913887841,0.126595741,0.0,Rb,Au,F
mp-568666,Rb1 Au1 I3,7.912646931,7.912647766,8.795059566,65.49520593,65.49519854,60.68249464,mono,C2/m,-0.910050577,0.0,0.7061,Rb,Au,I
mp-975405,Rb1 Au1 O3,4.21732,4.21732,4.21732,90.0,90.0,90.0,cubic,Pm-3m,-0.524185045,0.384799886,0.0,Rb,Au,O
mp-975385,Rb1 B1 O3,3.69368,3.69368,3.69368,90.0,90.0,90.0,cubic,Pm-3m,-0.597828368,1.499975552,0.0,Rb,B,O
mp-9047,Rb1 B1 S3,5.832857965,7.125645593,11.91701952,90.0,90.0,104.6840345,mono,P2_1/c,-1.016867513,0.0,2.4085,Rb,B,S
mp-10552,Rb1 B1 Se3,12.701163,6.283839,7.50395862,75.34263111,90.0,90.0,mono,P2_1/c,-0.832793234,0.0,1.6569,Rb,B,Se
mp-1219638,Rb1 Ba1 N3,15.27436697,14.93698282,6.809731136,79.75575325,74.2219897,26.02225705,ortho,Fddd,1.305541012,1.793950969,0.0,Rb,Ba,N
mp-975387,Rb1 Ba1 O3,4.995185,4.995185,4.995185,90.0,90.0,90.0,cubic,Pm-3m,-1.279485676,0.515827346,0.0,Rb,Ba,O
mp-975031,Rb1 Be1 H3,5.893298,7.353153,9.402904364,73.82387418,90.0,90.0,mono,P2_1/c,-0.191623515,0.001487195,3.3379,Rb,Be,H
mp-1197886,Rb1 Be1 N3,8.430366,14.111112,15.125707,90.0,90.0,90.0,ortho,Pbca,0.854925659,1.347948162,0.0,Rb,Be,N
mp-975394,Rb1 Be1 O3,3.881145,3.881145,3.881145,90.0,90.0,90.0,cubic,Pm-3m,-1.048571704,0.775926795,0.0,Rb,Be,O
mp-1173046,Rb1 Bi1 F3,4.260722,4.260722,12.904108,90.0,90.0,90.0,tet,P4/nmm,-2.303615886,0.38790871,0.0,Rb,Bi,F
mp-677028,Rb1 Bi1 F3,5.026896,5.161673373,8.672505136,96.27132868,92.60776584,96.62099661,tri,P1,-2.537074597,0.154449999,1.3584,Rb,Bi,F
mp-975384,Rb1 Bi1 O3,4.259822,4.259822,4.259822,90.0,90.0,90.0,cubic,Pm-3m,-1.447628567,0.0,0.0,Rb,Bi,O
mp-28872,Rb1 Br1 O3,4.4669857,4.466985267,4.466986082,87.66332651,87.66333298,87.66332228,trig,R3m,-1.052957117,0.0,3.9953,Rb,Br,O
mp-31271,Rb1 C1 O3,10.710959,7.878144,8.044678632,78.49516639,90.0,90.0,mono,P2_1/c,-1.724604522,0.057108609,3.9411,Rb,C,O
mp-1209227,Rb1 Ca1 Br3,5.73669,5.73669,5.73669,90.0,90.0,90.0,cubic,Pm-3m,-2.260459237,0.023744038,4.0839,Rb,Ca,Br
mp-1209238,Rb1 Ca1 Br3,7.78124338,8.11548266,11.15646626,90.0,90.0,90.0,ortho,Pnma,-2.284120757,8.25e-05,4.626,Rb,Ca,Br
mp-998198,Rb1 Ca1 Br3,5.743071221,5.743071221,5.740425791,89.93769462,89.93769462,90.02605915,mono,Cm,-2.259962026,0.024241248,4.0722,Rb,Ca,Br
mp-998536,Rb1 Ca1 Br3,4.37789821,9.69260383,16.09469918,90.0,90.0,90.0,ortho,Pnma,-2.284203274,0.0,4.2996,Rb,Ca,Br
mp-2795318,Rb1 Ca1 Cl3,5.429531644,5.429531644,5.428881476,89.99169433,89.99169433,90.0011108,tet,P4mm,-2.602987026,0.01025158,4.9651,Rb,Ca,Cl
mp-998197,Rb1 Ca1 Cl3,5.377697661,5.377491184,5.377211409,90.01122959,90.04305037,90.00225986,mono,Cm,-2.600143608,0.013094998,4.9577,Rb,Ca,Cl
mp-998324,Rb1 Ca1 Cl3,7.507942488,7.507942488,7.507942709,60.88403643,60.88403643,60.88404753,trig,R3c,-2.613238606,0.0,5.3844,Rb,Ca,Cl
mp-3654,Rb1 Ca1 F3,4.45428814,4.45428814,4.45428814,90.0,90.0,90.0,cubic,Pm-3m,-3.718474269,0.0,6.3971,Rb,Ca,F
mp-23949,Rb1 Ca1 H3,4.52097295,4.52097295,4.52097295,90.0,90.0,90.0,cubic,Pm-3m,-0.479651066,0.017971986,3.2736,Rb,Ca,H
mp-998325,Rb1 Ca1 I3,6.21013772,6.21013772,6.207693177,89.95899442,89.95899442,89.94564297,mono,Cm,-1.76925537,0.045907286,3.4334,Rb,Ca,I
mp-998592,Rb1 Ca1 I3,4.69371084,10.46897138,17.37418299,90.0,90.0,90.0,ortho,Pnma,-1.815162657,0.0,3.5985,Rb,Ca,I
mp-975382,Rb1 Ca1 O3,4.616624,4.616624,4.616624,90.0,90.0,90.0,cubic,Pm-3m,-1.484000282,0.421763652,0.0,Rb,Ca,O
mp-27400,Rb1 Cd1 Br3,4.2474237,9.55090906,15.79276485,90.0,90.0,90.0,ortho,Pnma,-1.56035395,0.0,2.7536,Rb,Cd,Br
mp-23390,Rb1 Cd1 Cl3,4.05372776,9.04405641,15.05258048,90.0,90.0,90.0,ortho,Pnma,-1.820072008,0.0,3.5562,Rb,Cd,Cl
mp-6951,Rb1 Cd1 F3,4.42498073,4.42498073,4.42498073,90.0,90.0,90.0,cubic,Pm-3m,-2.698333587,0.0,3.1745,Rb,Cd,F
mp-1209203,Rb1 Cd1 N3,4.58767,4.58767,4.58767,90.0,90.0,90.0,cubic,Pm-3m,1.666288488,1.778451935,0.0,Rb,Cd,N
mp-975380,Rb1 Cd1 O3,4.465707,4.465707,4.465707,90.0,90.0,90.0,cubic,Pm-3m,-0.718813146,0.40300357,0.0,Rb,Cd,O
mp-23011,Rb1 Cl1 O3,4.597086472,4.597086472,4.597086451,83.9676627,83.9676627,83.96766039,trig,R3m,-1.144270049,0.065171114,5.3288,Rb,Cl,O
mp-1206319,Rb1 Co1 Br3,7.428611311,7.427502151,6.24458767,89.99999801,90.00002782,119.9955173,hex_,P6_3/mmc,-1.228234084,0.016217684,0.0,Rb,Co,Br
mp-1209410,Rb1 Co1 Br3,13.07014869,13.07014869,6.209557,90.0,90.0,120.0000035,trig,P-3c1,-1.09377977,0.150671998,0.0,Rb,Co,Br
mp-1209412,Rb1 Co1 Br3,13.05552585,13.05552585,6.230356,90.0,90.0,119.9999992,hex_,P6_3cm,-1.049020228,0.195431541,0.0,Rb,Co,Br
mp-1209578,Rb1 Co1 Br3,12.91575753,12.91575753,6.243637,90.0,90.0,119.9999976,trig,P3c1,-1.180402418,0.064049351,0.0,Rb,Co,Br
mp-27707,Rb1 Co1 Cl3,7.01762171,7.01762004,5.94230516,90.0,90.0,119.9999895,hex_,P6_3/mmc,-1.525300202,0.002501066,0.0,Rb,Co,Cl
mp-541814,Rb1 Co1 F3,6.013009642,6.013009642,14.722671,90.0,90.0,119.9999961,hex_,P6_3/mmc,-2.622726406,0.0,0.0,Rb,Co,F
mp-30027,Rb1 Cr1 Cl3,7.057032761,7.057032761,12.74991915,86.08378263,86.08378263,59.5785992,mono,C2/c,-1.739992118,0.019588501,0.5095,Rb,Cr,Cl
mp-568864,Rb1 Cr1 Cl3,7.185303509,7.185303509,12.82195607,87.60145923,87.60145923,59.62082835,mono,C2,-1.73800904,0.02157158,0.399,Rb,Cr,Cl
mp-568887,Rb1 Cr1 Cl3,6.312599656,7.101332,7.135485875,60.15820964,88.0210188,90.0,mono,C2/m,-1.731290515,0.028290105,0.1195,Rb,Cr,Cl
mp-1206325,Rb1 Cr1 F3,4.414319,4.414319,4.098647,90.0,90.0,90.0,tet,P4/mmm,-2.896067021,0.010353354,0.9717,Rb,Cr,F
mp-27442,Rb1 Cr1 I3,8.11166476,8.11166476,14.42091642,84.76938546,84.76938546,60.11998986,mono,C2,-1.000396931,0.063565573,0.1685,Rb,Cr,I
mp-676553,Rb1 Cr1 I3,8.084576417,8.084576417,7.025221132,85.40497228,85.40497228,60.17367567,mono,C2/m,-0.996425669,0.067536835,0.0,Rb,Cr,I
mp-1076360,Rb1 Cr1 O3,3.94693,3.94693,3.94693,90.0,90.0,90.0,cubic,Pm-3m,-1.557712125,0.508016843,0.0,Rb,Cr,O
mp-998196,Rb1 Cu1 Br3,5.14688603,5.153862302,5.132402376,90.01348162,90.05831959,90.02353057,cubic,Pm-3m,-1.200786787,0.013992916,0.0,Rb,Cu,Br
mp-1232302,Rb1 Cu1 Cl3,6.936351628,6.936351628,6.936351628,117.6099033,117.6099033,94.19215198,tet,I4/mcm,-1.484715367,0.000887256,0.0,Rb,Cu,Cl
mp-23055,Rb1 Cu1 Cl3,6.22716955,7.04645449,11.80800118,90.0,90.0,90.0,ortho,Pbcn,-1.485602623,0.0,0.1859,Rb,Cu,Cl
mp-568857,Rb1 Cu1 Cl3,6.992945,7.037086206,12.56544249,90.53775336,90.0,119.792723,mono,C2/c,-1.46244464,0.023157984,0.0,Rb,Cu,Cl
mp-569526,Rb1 Cu1 Cl3,7.060612556,7.060612556,5.974634,90.0,90.0,120.0000052,hex_,P6_3/mmc,-1.434710616,0.050892007,0.0,Rb,Cu,Cl
mp-571305,Rb1 Cu1 Cl3,7.048828326,7.048828326,12.58885775,89.36597372,89.36597372,59.51852065,mono,C2,-1.462804303,0.02279832,0.0,Rb,Cu,Cl
mp-554601,Rb1 Cu1 F3,4.06660228,4.07169097,4.07169097,90.0,90.0,90.0,cubic,Pm-3m,-2.307072606,0.031564307,0.0,Rb,Cu,F
mp-8858,Rb1 Cu1 F3,5.787292199,5.785407385,5.785407801,94.27056081,117.5560465,117.5560597,tet,I4/mcm,-2.338636913,0.0,0.0,Rb,Cu,F
mp-975364,Rb1 Cu1 O3,4.046069,4.046069,4.046069,90.0,90.0,90.0,cubic,Pm-3m,-0.659154047,0.426995967,0.0,Rb,Cu,O
mp-1219609,Rb1 Cu1 S3,4.181384,3.480629,7.901201,90.0,90.0,90.0,ortho,Pmm2,-0.417862037,0.365584341,0.0,Rb,Cu,S
mp-1209279,Rb1 Dy1 Br3,7.700161,8.235993,11.258521,90.0,90.0,90.0,ortho,Pnma,-1.88208569,0.129484077,0.0,Rb,Dy,Br
mp-1206194,Rb1 Dy1 I3,8.283960585,8.283960585,11.75734,90.0,90.0,148.6470907,ortho,Cmcm,-1.462106908,0.097186222,0.0,Rb,Dy,I
mp-1209272,Rb1 Dy1 I3,8.229636,8.726612,11.982103,90.0,90.0,90.0,ortho,Pnma,-1.4332974,0.125995729,0.0,Rb,Dy,I
mp-975386,Rb1 Dy1 O3,4.519148,4.519148,4.519148,90.0,90.0,90.0,cubic,Pm-3m,-2.285551703,0.255247988,0.0,Rb,Dy,O
mp-975361,Rb1 Er1 O3,4.494243,4.494243,4.494243,90.0,90.0,90.0,cubic,Pm-3m,-2.318606859,0.248216991,0.0,Rb,Er,O
mp-1206801,Rb1 Eu1 Cl3,5.655825,5.655825,5.655825,90.0,90.0,90.0,cubic,Pm-3m,-2.547819635,0.03837239,0.4542,Rb,Eu,Cl
mp-1206518,Rb1 Fe1 Cl3,4.93010805,4.93013288,4.93012564,90.0,90.0,90.0,cubic,Pm-3m,-1.548172373,0.070703025,0.0,Rb,Fe,Cl
mp-1206560,Rb1 Fe1 Cl3,6.979655649,6.979655649,5.872783,90.0,90.0,119.9999967,hex_,P6_3/mmc,-1.515775469,0.103099929,0.3602,Rb,Fe,Cl
mp-554465,Rb1 Fe1 F3,4.220695,4.220695,4.220695,90.0,90.0,90.0,cubic,Pm-3m,-2.491835549,0.266142958,0.0,Rb,Fe,F
mp-975322,Rb1 Fe1 O3,4.045439,4.045439,4.045439,90.0,90.0,90.0,cubic,Pm-3m,-1.164507126,0.266845016,0.0,Rb,Fe,O
mp-975308,Rb1 Gd1 O3,4.472071,4.472071,4.472071,90.0,90.0,90.0,cubic,Pm-3m,-2.309046939,0.176935758,0.0,Rb,Gd,O
mp-1120721,Rb1 Ge1 Br3,7.45264327,6.152178918,8.145619223,74.1795581,90.0,90.0,mono,P2_1/m,-1.41830029,0.0,3.1238,Rb,Ge,Br
mp-28558,Rb1 Ge1 Br3,7.62829121,8.26688561,11.30344188,90.0,90.0,90.0,ortho,Pna2_1,-1.416827168,0.001473122,1.9851,Rb,Ge,Br
mp-1120729,Rb1 Ge1 Cl3,7.29946596,7.98976514,10.8443874,90.0,90.0,90.0,ortho,Pna2_1,-1.672448122,0.018935774,2.5704,Rb,Ge,Cl
mp-27369,Rb1 Ge1 Cl3,5.834404792,6.98791184,7.952852245,90.0,105.8771394,90.0,mono,P2_1/m,-1.691383896,0.0,3.7529,Rb,Ge,Cl
mp-567855,Rb1 Ge1 I3,4.69061112,10.30008669,16.90456321,90.0,90.0,90.0,ortho,P2_12_12_1,-1.030275096,0.005060806,2.1987,Rb,Ge,I
mp-571458,Rb1 Ge1 I3,5.91458197,5.91458197,5.91458197,90.0,90.0,90.0,cubic,Pm-3m,-1.021950394,0.013385509,0.554,Rb,Ge,I
mp-1186885,Rb1 Ge1 O3,3.948621,3.948621,3.948621,90.0,90.0,90.0,cubic,Pm-3m,-1.486983048,0.419926688,0.0,Rb,Ge,O
mp-7482,Rb1 Hg1 F3,4.54921913,4.54921913,4.54921913,90.0,90.0,90.0,cubic,Pm-3m,-2.231189525,0.0,0.6454,Rb,Hg,F
mp-1186886,Rb1 Hg1 O3,4.378672,4.378672,4.378672,90.0,90.0,90.0,cubic,Pm-3m,-0.473718297,0.363660874,0.0,Rb,Hg,O
mp-975296,Rb1 Ho1 O3,4.497734,4.497734,4.497734,90.0,90.0,90.0,cubic,Pm-3m,-2.300576585,0.251479938,0.0,Rb,Ho,O
mp-1179783,Rb1 I1 O3,7.534233304,6.955180104,5.467492271,71.20474656,133.55121,117.8795321,mono,Cm,-0.378921333,0.99360821,0.408,Rb,I,O
mp-27193,Rb1 I1 O3,4.519323495,4.519324409,4.519323165,89.71652165,89.71650902,89.71651552,trig,R3m,-1.372529544,0.0,2.8369,Rb,I,O
mp-1110737,Rb1 In1 Br3,8.097740359,8.097740359,8.097740359,60.0,60.0,60.0,cubic,Fm-3m,-1.499045155,0.025192821,1.3264,Rb,In,Br
mp-998194,Rb1 In1 Br3,5.735617186,5.735617186,5.73371368,89.92559992,89.92559992,90.07227499,mono,Cm,-1.482911642,0.041326334,0.0,Rb,In,Br
mp-998800,Rb1 In1 Br3,8.082918591,8.082918591,8.082919167,60.07849157,60.07849157,60.0784894,trig,R3c,-1.489376404,0.034861572,0.0,Rb,In,Br
mp-1114001,Rb1 In1 Cl3,7.736445266,7.736445266,7.736445266,60.0,60.0,60.0,cubic,Fm-3m,-1.769032328,0.0,1.6773,Rb,In,Cl
mp-998195,Rb1 In1 Cl3,5.451542177,5.452959756,5.453123337,90.29383279,90.13918602,90.03015875,mono,Cm,-1.732558959,0.036473369,0.0,Rb,In,Cl
mp-998204,Rb1 In1 Cl3,5.452333292,5.452333292,5.452959709,89.83798278,89.83798278,90.13919047,tet,P4mm,-1.732567391,0.036464937,0.0,Rb,In,Cl
mp-998753,Rb1 In1 Cl3,7.696961767,7.696961767,7.696961226,60.01451065,60.01451065,60.01451179,trig,R3c,-1.73656163,0.032470698,0.0,Rb,In,Cl
mp-1110662,Rb1 In1 F3,6.538670726,6.538670726,6.538670726,60.0,60.0,60.0,cubic,Fm-3m,-2.732375112,0.009161325,2.4848,Rb,In,F
mp-1147705,Rb1 In1 H3,6.257462264,6.257462264,6.257462264,60.0,60.0,60.0,cubic,Fm-3m,-0.046680247,0.050604781,0.0,Rb,In,H
mp-1114161,Rb1 In1 I3,8.78093969,8.78093969,8.78093969,60.0,60.0,60.0,cubic,Fm-3m,-1.098630019,0.056383545,0.0,Rb,In,I
mp-975299,Rb1 In1 O3,4.354854,4.354854,4.354854,90.0,90.0,90.0,cubic,Pm-3m,-1.251412654,0.293220448,0.0,Rb,In,O
mp-975284,Rb1 Ir1 O3,4.009203,4.009203,4.009203,90.0,90.0,90.0,cubic,Pm-3m,-1.205418011,0.044315119,0.0,Rb,Ir,O
mp-975291,Rb1 Li1 O3,4.179392,4.179392,4.179392,90.0,90.0,90.0,cubic,Pm-3m,-0.696537359,0.546886913,0.0,Rb,Li,O
mp-27208,Rb1 Mg1 Cl3,7.09539857,7.09539909,11.86949791,90.0,90.0,120.0000023,hex_,P6_3/mmc,-2.277186098,0.0,4.7503,Rb,Mg,Cl
mp-662499,Rb1 Mg1 Cl3,7.095199629,7.095199755,17.60876029,89.99999958,89.99999952,119.9992818,hex_,P6_3/mmc,-2.275610736,0.001575362,4.6099,Rb,Mg,Cl
mp-541813,Rb1 Mg1 F3,5.822173347,5.822173752,14.18328167,89.99999343,90.00000791,119.9981098,hex_,P6_3/mmc,-3.503474806,0.005790626,6.6666,Rb,Mg,F
mp-559523,Rb1 Mg1 F3,6.906875933,6.906875933,14.358365,90.0,90.0,119.9999994,hex_,P6_3/mmc,-2.940010877,0.569254556,2.2015,Rb,Mg,F
mp-8402,Rb1 Mg1 F3,4.056934,4.056934,4.056934,90.0,90.0,90.0,cubic,Pm-3m,-3.509265432,0.0,6.9384,Rb,Mg,F
mp-23738,Rb1 Mg1 H3,5.886684253,5.886683969,14.28385677,90.00000007,90.00000047,119.9997561,hex_,P6_3/mmc,-0.32559849,0.0,2.5405,Rb,Mg,H
mp-1186884,Rb1 Mg1 O3,4.194742,4.194742,4.194742,90.0,90.0,90.0,cubic,Pm-3m,-1.39230993,0.406369916,0.0,Rb,Mg,O
mp-29763,Rb1 Mn1 Br3,7.50776348,7.507771222,6.47950108,90.0,90.0,120.0000291,hex_,P6_3/mmc,-1.531377246,0.001735939,0.0,Rb,Mn,Br
mp-568231,Rb1 Mn1 Br3,12.99505335,12.9951733,6.53335065,90.00063838,89.99892932,119.9949439,hex_,P6_3cm,-1.533113185,0.0,1.2358,Rb,Mn,Br
mp-569309,Rb1 Mn1 Cl3,7.155895928,7.155895691,17.79950594,90.00000314,90.0000048,119.9979055,hex_,P6_3/mmc,-1.823712653,0.0,1.3133,Rb,Mn,Cl
mp-558749,Rb1 Mn1 F3,4.23247214,4.23247214,4.23247214,90.0,90.0,90.0,cubic,Pm-3m,-3.014906923,0.0,2.9437,Rb,Mn,F
mp-975346,Rb1 Mn1 O3,4.039265,4.039265,4.039265,90.0,90.0,90.0,cubic,Pm-3m,-1.378088158,0.379636239,0.0,Rb,Mn,O
mp-975292,Rb1 Mo1 O3,4.052919,4.052919,4.052919,90.0,90.0,90.0,cubic,Pm-3m,-1.952896877,0.193318935,0.0,Rb,Mo,O
mp-1219584,Rb1 N1 O3,4.75126996,4.751269516,4.751269755,72.80689611,72.80690648,72.80690225,trig,R3m,-1.421093342,0.0,3.0415,Rb,N,O
mp-13658,Rb1 N1 O3,4.8902325,5.31012834,5.77135798,90.0,90.0,90.0,ortho,Pmmn,-1.403544359,0.017548983,3.1172,Rb,N,O
mp-38220,Rb1 N1 O3,9.043921902,6.051993933,6.051993933,60.0,47.99633671,47.99633671,trig,R-3c,-1.397958757,0.023134585,3.0358,Rb,N,O